# vtk DataFile Version 2.0
TITLE = "Quad data"
ASCII
DATASET STRUCTURED_GRID
DIMENSIONS 65 65 1
POINTS 4225 FLOAT
0.000000 0.000000 0.000000
0.000000 0.015625 0.000000
0.000000 0.031250 0.000000
0.000000 0.046875 0.000000
0.000000 0.062500 0.000000
0.000000 0.078125 0.000000
0.000000 0.093750 0.000000
0.000000 0.109375 0.000000
0.000000 0.125000 0.000000
0.000000 0.140625 0.000000
0.000000 0.156250 0.000000
0.000000 0.171875 0.000000
0.000000 0.187500 0.000000
0.000000 0.203125 0.000000
0.000000 0.218750 0.000000
0.000000 0.234375 0.000000
0.000000 0.250000 0.000000
0.000000 0.265625 0.000000
0.000000 0.281250 0.000000
0.000000 0.296875 0.000000
0.000000 0.312500 0.000000
0.000000 0.328125 0.000000
0.000000 0.343750 0.000000
0.000000 0.359375 0.000000
0.000000 0.375000 0.000000
0.000000 0.390625 0.000000
0.000000 0.406250 0.000000
0.000000 0.421875 0.000000
0.000000 0.437500 0.000000
0.000000 0.453125 0.000000
0.000000 0.468750 0.000000
0.000000 0.484375 0.000000
0.000000 0.500000 0.000000
0.000000 0.515625 0.000000
0.000000 0.531250 0.000000
0.000000 0.546875 0.000000
0.000000 0.562500 0.000000
0.000000 0.578125 0.000000
0.000000 0.593750 0.000000
0.000000 0.609375 0.000000
0.000000 0.625000 0.000000
0.000000 0.640625 0.000000
0.000000 0.656250 0.000000
0.000000 0.671875 0.000000
0.000000 0.687500 0.000000
0.000000 0.703125 0.000000
0.000000 0.718750 0.000000
0.000000 0.734375 0.000000
0.000000 0.750000 0.000000
0.000000 0.765625 0.000000
0.000000 0.781250 0.000000
0.000000 0.796875 0.000000
0.000000 0.812500 0.000000
0.000000 0.828125 0.000000
0.000000 0.843750 0.000000
0.000000 0.859375 0.000000
0.000000 0.875000 0.000000
0.000000 0.890625 0.000000
0.000000 0.906250 0.000000
0.000000 0.921875 0.000000
0.000000 0.937500 0.000000
0.000000 0.953125 0.000000
0.000000 0.968750 0.000000
0.000000 0.984375 0.000000
0.000000 1.000000 0.000000
0.015625 0.000000 0.000000
0.015625 0.015625 0.000000
0.015625 0.031250 0.000000
0.015625 0.046875 0.000000
0.015625 0.062500 0.000000
0.015625 0.078125 0.000000
0.015625 0.093750 0.000000
0.015625 0.109375 0.000000
0.015625 0.125000 0.000000
0.015625 0.140625 0.000000
0.015625 0.156250 0.000000
0.015625 0.171875 0.000000
0.015625 0.187500 0.000000
0.015625 0.203125 0.000000
0.015625 0.218750 0.000000
0.015625 0.234375 0.000000
0.015625 0.250000 0.000000
0.015625 0.265625 0.000000
0.015625 0.281250 0.000000
0.015625 0.296875 0.000000
0.015625 0.312500 0.000000
0.015625 0.328125 0.000000
0.015625 0.343750 0.000000
0.015625 0.359375 0.000000
0.015625 0.375000 0.000000
0.015625 0.390625 0.000000
0.015625 0.406250 0.000000
0.015625 0.421875 0.000000
0.015625 0.437500 0.000000
0.015625 0.453125 0.000000
0.015625 0.468750 0.000000
0.015625 0.484375 0.000000
0.015625 0.500000 0.000000
0.015625 0.515625 0.000000
0.015625 0.531250 0.000000
0.015625 0.546875 0.000000
0.015625 0.562500 0.000000
0.015625 0.578125 0.000000
0.015625 0.593750 0.000000
0.015625 0.609375 0.000000
0.015625 0.625000 0.000000
0.015625 0.640625 0.000000
0.015625 0.656250 0.000000
0.015625 0.671875 0.000000
0.015625 0.687500 0.000000
0.015625 0.703125 0.000000
0.015625 0.718750 0.000000
0.015625 0.734375 0.000000
0.015625 0.750000 0.000000
0.015625 0.765625 0.000000
0.015625 0.781250 0.000000
0.015625 0.796875 0.000000
0.015625 0.812500 0.000000
0.015625 0.828125 0.000000
0.015625 0.843750 0.000000
0.015625 0.859375 0.000000
0.015625 0.875000 0.000000
0.015625 0.890625 0.000000
0.015625 0.906250 0.000000
0.015625 0.921875 0.000000
0.015625 0.937500 0.000000
0.015625 0.953125 0.000000
0.015625 0.968750 0.000000
0.015625 0.984375 0.000000
0.015625 1.000000 0.000000
0.031250 0.000000 0.000000
0.031250 0.015625 0.000000
0.031250 0.031250 0.000000
0.031250 0.046875 0.000000
0.031250 0.062500 0.000000
0.031250 0.078125 0.000000
0.031250 0.093750 0.000000
0.031250 0.109375 0.000000
0.031250 0.125000 0.000000
0.031250 0.140625 0.000000
0.031250 0.156250 0.000000
0.031250 0.171875 0.000000
0.031250 0.187500 0.000000
0.031250 0.203125 0.000000
0.031250 0.218750 0.000000
0.031250 0.234375 0.000000
0.031250 0.250000 0.000000
0.031250 0.265625 0.000000
0.031250 0.281250 0.000000
0.031250 0.296875 0.000000
0.031250 0.312500 0.000000
0.031250 0.328125 0.000000
0.031250 0.343750 0.000000
0.031250 0.359375 0.000000
0.031250 0.375000 0.000000
0.031250 0.390625 0.000000
0.031250 0.406250 0.000000
0.031250 0.421875 0.000000
0.031250 0.437500 0.000000
0.031250 0.453125 0.000000
0.031250 0.468750 0.000000
0.031250 0.484375 0.000000
0.031250 0.500000 0.000000
0.031250 0.515625 0.000000
0.031250 0.531250 0.000000
0.031250 0.546875 0.000000
0.031250 0.562500 0.000000
0.031250 0.578125 0.000000
0.031250 0.593750 0.000000
0.031250 0.609375 0.000000
0.031250 0.625000 0.000000
0.031250 0.640625 0.000000
0.031250 0.656250 0.000000
0.031250 0.671875 0.000000
0.031250 0.687500 0.000000
0.031250 0.703125 0.000000
0.031250 0.718750 0.000000
0.031250 0.734375 0.000000
0.031250 0.750000 0.000000
0.031250 0.765625 0.000000
0.031250 0.781250 0.000000
0.031250 0.796875 0.000000
0.031250 0.812500 0.000000
0.031250 0.828125 0.000000
0.031250 0.843750 0.000000
0.031250 0.859375 0.000000
0.031250 0.875000 0.000000
0.031250 0.890625 0.000000
0.031250 0.906250 0.000000
0.031250 0.921875 0.000000
0.031250 0.937500 0.000000
0.031250 0.953125 0.000000
0.031250 0.968750 0.000000
0.031250 0.984375 0.000000
0.031250 1.000000 0.000000
0.046875 0.000000 0.000000
0.046875 0.015625 0.000000
0.046875 0.031250 0.000000
0.046875 0.046875 0.000000
0.046875 0.062500 0.000000
0.046875 0.078125 0.000000
0.046875 0.093750 0.000000
0.046875 0.109375 0.000000
0.046875 0.125000 0.000000
0.046875 0.140625 0.000000
0.046875 0.156250 0.000000
0.046875 0.171875 0.000000
0.046875 0.187500 0.000000
0.046875 0.203125 0.000000
0.046875 0.218750 0.000000
0.046875 0.234375 0.000000
0.046875 0.250000 0.000000
0.046875 0.265625 0.000000
0.046875 0.281250 0.000000
0.046875 0.296875 0.000000
0.046875 0.312500 0.000000
0.046875 0.328125 0.000000
0.046875 0.343750 0.000000
0.046875 0.359375 0.000000
0.046875 0.375000 0.000000
0.046875 0.390625 0.000000
0.046875 0.406250 0.000000
0.046875 0.421875 0.000000
0.046875 0.437500 0.000000
0.046875 0.453125 0.000000
0.046875 0.468750 0.000000
0.046875 0.484375 0.000000
0.046875 0.500000 0.000000
0.046875 0.515625 0.000000
0.046875 0.531250 0.000000
0.046875 0.546875 0.000000
0.046875 0.562500 0.000000
0.046875 0.578125 0.000000
0.046875 0.593750 0.000000
0.046875 0.609375 0.000000
0.046875 0.625000 0.000000
0.046875 0.640625 0.000000
0.046875 0.656250 0.000000
0.046875 0.671875 0.000000
0.046875 0.687500 0.000000
0.046875 0.703125 0.000000
0.046875 0.718750 0.000000
0.046875 0.734375 0.000000
0.046875 0.750000 0.000000
0.046875 0.765625 0.000000
0.046875 0.781250 0.000000
0.046875 0.796875 0.000000
0.046875 0.812500 0.000000
0.046875 0.828125 0.000000
0.046875 0.843750 0.000000
0.046875 0.859375 0.000000
0.046875 0.875000 0.000000
0.046875 0.890625 0.000000
0.046875 0.906250 0.000000
0.046875 0.921875 0.000000
0.046875 0.937500 0.000000
0.046875 0.953125 0.000000
0.046875 0.968750 0.000000
0.046875 0.984375 0.000000
0.046875 1.000000 0.000000
0.062500 0.000000 0.000000
0.062500 0.015625 0.000000
0.062500 0.031250 0.000000
0.062500 0.046875 0.000000
0.062500 0.062500 0.000000
0.062500 0.078125 0.000000
0.062500 0.093750 0.000000
0.062500 0.109375 0.000000
0.062500 0.125000 0.000000
0.062500 0.140625 0.000000
0.062500 0.156250 0.000000
0.062500 0.171875 0.000000
0.062500 0.187500 0.000000
0.062500 0.203125 0.000000
0.062500 0.218750 0.000000
0.062500 0.234375 0.000000
0.062500 0.250000 0.000000
0.062500 0.265625 0.000000
0.062500 0.281250 0.000000
0.062500 0.296875 0.000000
0.062500 0.312500 0.000000
0.062500 0.328125 0.000000
0.062500 0.343750 0.000000
0.062500 0.359375 0.000000
0.062500 0.375000 0.000000
0.062500 0.390625 0.000000
0.062500 0.406250 0.000000
0.062500 0.421875 0.000000
0.062500 0.437500 0.000000
0.062500 0.453125 0.000000
0.062500 0.468750 0.000000
0.062500 0.484375 0.000000
0.062500 0.500000 0.000000
0.062500 0.515625 0.000000
0.062500 0.531250 0.000000
0.062500 0.546875 0.000000
0.062500 0.562500 0.000000
0.062500 0.578125 0.000000
0.062500 0.593750 0.000000
0.062500 0.609375 0.000000
0.062500 0.625000 0.000000
0.062500 0.640625 0.000000
0.062500 0.656250 0.000000
0.062500 0.671875 0.000000
0.062500 0.687500 0.000000
0.062500 0.703125 0.000000
0.062500 0.718750 0.000000
0.062500 0.734375 0.000000
0.062500 0.750000 0.000000
0.062500 0.765625 0.000000
0.062500 0.781250 0.000000
0.062500 0.796875 0.000000
0.062500 0.812500 0.000000
0.062500 0.828125 0.000000
0.062500 0.843750 0.000000
0.062500 0.859375 0.000000
0.062500 0.875000 0.000000
0.062500 0.890625 0.000000
0.062500 0.906250 0.000000
0.062500 0.921875 0.000000
0.062500 0.937500 0.000000
0.062500 0.953125 0.000000
0.062500 0.968750 0.000000
0.062500 0.984375 0.000000
0.062500 1.000000 0.000000
0.078125 0.000000 0.000000
0.078125 0.015625 0.000000
0.078125 0.031250 0.000000
0.078125 0.046875 0.000000
0.078125 0.062500 0.000000
0.078125 0.078125 0.000000
0.078125 0.093750 0.000000
0.078125 0.109375 0.000000
0.078125 0.125000 0.000000
0.078125 0.140625 0.000000
0.078125 0.156250 0.000000
0.078125 0.171875 0.000000
0.078125 0.187500 0.000000
0.078125 0.203125 0.000000
0.078125 0.218750 0.000000
0.078125 0.234375 0.000000
0.078125 0.250000 0.000000
0.078125 0.265625 0.000000
0.078125 0.281250 0.000000
0.078125 0.296875 0.000000
0.078125 0.312500 0.000000
0.078125 0.328125 0.000000
0.078125 0.343750 0.000000
0.078125 0.359375 0.000000
0.078125 0.375000 0.000000
0.078125 0.390625 0.000000
0.078125 0.406250 0.000000
0.078125 0.421875 0.000000
0.078125 0.437500 0.000000
0.078125 0.453125 0.000000
0.078125 0.468750 0.000000
0.078125 0.484375 0.000000
0.078125 0.500000 0.000000
0.078125 0.515625 0.000000
0.078125 0.531250 0.000000
0.078125 0.546875 0.000000
0.078125 0.562500 0.000000
0.078125 0.578125 0.000000
0.078125 0.593750 0.000000
0.078125 0.609375 0.000000
0.078125 0.625000 0.000000
[...]
POINT_DATA 4225
SCALARS phi FLOAT 1
LOOKUP_TABLE default
0.000000000000
0.000000059605
0.000000953674
0.000004827976
0.000015258789
0.000037252903
0.000077247620
0.000143110752
0.000244140625
0.000391066074
0.000596046448
0.000872671604
0.001235961914
0.001702368259
0.002289772034
0.003017485142
0.003906250000
0.004978239536
0.006257057190
0.007767736912
0.009536743164
0.011591970921
0.013962745667
0.016679823399
0.019775390625
0.023283064365
0.027237892151
0.031676352024
0.036636352539
0.042157232761
0.048279762268
0.055046141148
0.062500000000
0.070686399937
0.079651832581
0.089444220066
0.100112915039
0.111708700657
0.124283790588
0.137891829014
0.152587890625
0.168428480625
0.185471534729
0.203776419163
0.223403930664
0.244416296482
0.266877174377
0.290851652622
0.316406250000
0.343608915806
0.372529029846
0.403237402439
0.435806274414
0.470309317112
0.506821632385
0.545419752598
0.586181640625
0.629186689854
0.674515724182
0.722250998020
0.772476196289
0.825276434422
0.880738258362
0.938949644566
1.000000000000
0.000000059605
0.950022292923
0.882927652870
0.781467028842
0.658704188479
0.528767110545
0.404233897739
0.294303489649
0.204057576404
0.134742703518
0.084733368377
0.050746262890
0.028944338523
0.015723843181
0.008136905404
0.004012941084
0.001888613557
0.000851553755
0.000372259878
0.000163414185
0.000078789997
0.000048429846
0.000040827592
0.000042623442
0.000048496717
0.000056477797
0.000065914452
0.000076644459
0.000088679231
0.000102089925
0.000116968777
0.000133416725
0.000151539656
0.000171447333
0.000193253106
0.000217073837
0.000243029883
0.000271245089
0.000301846790
0.000334965808
0.000370736456
0.000409296534
0.000450787330
0.000495353623
0.000543143677
0.000594309248
0.000649005577
0.000707391398
0.000769628929
0.000835883880
0.000906325446
0.000981126314
0.001060462657
0.001144514136
0.001233463902
0.001327498593
0.001426808334
0.001531586740
0.001642030912
0.001758341435
0.001880722384
0.002009381311
0.002144529251
0.002286380699
0.998535215855
0.000000953674
0.882927652870
0.820571516716
0.726276464505
0.612183645326
0.491423260491
0.375685094368
0.273518419423
0.189646036686
0.125226457146
0.078748980239
0.047162181490
0.026900003748
0.014613210152
0.007562123626
0.003729459330
0.001755231273
0.000791509617
0.000346192311
0.000152257538
0.000073810329
0.000045838720
0.000039066719
0.000041083358
0.000046949271
0.000054839731
0.000064154608
0.000074749419
0.000086641301
0.000099903161
0.000114627743
0.000130916125
0.000148874229
0.000168611830
0.000190242277
0.000213882436
0.000239652660
0.000267676796
0.000298082178
0.000330999629
0.000366563460
0.000404911472
0.000446184952
0.000490528677
0.000538090912
0.000589023412
0.000643481418
0.000701623661
0.000763612360
0.000829613221
0.000899795441
0.000974331703
0.001053398178
0.001137174526
0.001225843895
0.001319592920
0.001418611722
0.001523093911
0.001633236581
0.001749240313
0.001871309168
0.001999650690
0.002134475892
0.002275999256
0.994141578674
0.000004827976
0.781467028842
0.726276464505
0.642817199647
0.541835197986
0.434951820049
0.332513533700
0.242087183666
0.167852858265
0.110835942520
0.069699339724
0.041742280199
0.023808500421
0.012933641899
0.006692859456
0.003300687666
0.001553427603
0.000700594539
0.000306642390
0.000135240862
0.000066118625
0.000041742305
0.000036208348
0.000038540599
0.000044376313
0.000052109873
0.000061219934
0.000071588838
0.000083242377
0.000096256106
0.000110723536
0.000126745956
0.000144429345
0.000163883488
0.000185221742
0.000208560970
0.000234021526
0.000261727258
0.000291805499
0.000324387071
0.000359606286
0.000397600942
0.000438512329
0.000482485221
0.000529667884
0.000580212071
0.000634273023
0.000692009469
0.000753583628
0.000819161205
0.000888911394
0.000963006878
0.001041623826
0.001124941896
0.001213144233
0.001306417469
0.001404951723
0.001508940600
0.001618581190
0.001734074067
0.001855623287
0.001983436386
0.002117724373
0.002258701727
0.986821234226
0.000015258789
0.658704188479
0.612183645326
0.541835197986
0.456716697773
0.366623874809
0.280277843585
0.204056754850
0.141484038618
0.093424003399
0.058749605446
0.035184351826
0.020067811119
0.010901310587
0.005640937678
0.002781718172
0.001309053555
0.000590363359
0.000258531709
0.000114363696
0.000056491893
0.000036431694
0.000032360043
0.000035036844
0.000040797040
0.000048300124
0.000057120078
0.000067171702
0.000078491262
0.000091157513
0.000105264896
0.000120914956
0.000138213738
0.000157271045
0.000178200237
0.000201118176
0.000226145220
0.000253405213
0.000283025490
0.000315136872
0.000349873671
0.000387373684
0.000427778201
0.000471231996
0.000517883334
0.000567883966
0.000621389134
0.000678557566
0.000739551479
0.000804536577
0.000873682054
0.000947160590
0.001025148354
0.001107825000
0.001195373673
0.001287981002
0.001385837102
0.001489135577
0.001598073512
0.001712851478
0.001833673528
0.001960747195
0.002094283487
0.002234496890
0.976577758789
0.000037252903
0.528767110545
0.491423260491
0.434951820049
0.366623874809
0.294302834605
0.224989474875
0.163803785087
0.113574161823
0.074994423768
0.047159855630
0.028243035962
0.016108341888
0.008750001100
0.004527295387
0.002232133645
0.001050068801
0.000473314977
0.000207185567
0.000091791242
0.000045773219
0.000030224473
0.000027640910
0.000030619947
0.000036234988
0.000043426129
0.000051868250
0.000061510509
0.000072400252
0.000084619625
0.000098264054
0.000113435352
0.000130239636
0.000148786726
0.000169189986
0.000191566281
0.000216035966
0.000242722886
0.000271754377
0.000303261258
0.000337377842
0.000374241925
0.000413994797
0.000456781230
0.000502749490
0.000552051328
0.000604841983
0.000661280183
0.000721528145
0.000785751572
0.000854119656
0.000926805076
0.001003983999
0.001085836079
0.001172544458
0.001264295762
0.001361280108
0.001463691093
0.001571725803
0.001685584806
0.001805472153
0.001931595377
0.002064165490
0.002203396984
0.963416159153
0.000077247620
0.404233897739
0.375685094368
0.332513533700
0.280277843585
0.224989474875
0.172000409382
0.125224799687
0.086824913977
0.057331171436
0.036051939039
0.021590190844
0.012313286789
0.006687856264
0.003459607355
0.001704985304
0.000801370586
0.000360581956
0.000157349891
0.000069456000
0.000034718028
0.000023408216
0.000022161815
0.000025337338
0.000030715938
0.000037506646
0.000045481042
0.000054621211
0.000064985123
0.000076658172
0.000089736725
0.000104322857
0.000120522751
0.000138446244
0.000158206704
0.000179920997
0.000203709478
0.000229695992
0.000258007874
0.000288775945
0.000322134514
0.000358221381
0.000397177831
0.000439148640
0.000484282070
0.000532729873
0.000584647287
0.000640193040
0.000699529347
0.000762821911
0.000830239922
0.000901956059
0.000978146487
0.001058990860
0.001144672316
0.001235377483
0.001331296473
0.001432622885
0.001539553801
0.001652289789
0.001771034901
0.001895996670
0.002027386112
0.002165417726
0.947342872620
0.000143110752
0.294303489649
0.273518419423
0.242087183666
0.204056754850
0.163803785087
0.125224799687
0.091169510468
0.063212167271
0.041738949963
0.026246321811
0.015717184312
0.008962900578
0.004867107993
0.002516628691
0.001239079601
0.000581175095
0.000260313752
0.000112503302
0.000048779008
0.000023886508
0.000016200950
0.000016011552
0.000019231417
0.000024266458
0.000030563103
0.000037978297
0.000046523188
0.000056265124
0.000067292367
0.000079702116
0.000093596674
0.000109082285
0.000126268801
0.000145269593
0.000166201526
0.000189184958
0.000214343733
0.000241805185
0.000271700134
0.000304162891
0.000339331254
0.000377346509
0.000418353430
0.000462500279
0.000509938808
0.000560824254
0.000615315345
0.000673574294
0.000735766803
0.000802062064
0.000872632752
0.000947655032
0.001027308557
0.001111776465
0.001201245382
0.001295905418
0.001395950173
0.001501576727
0.001612985649
0.001730380991
0.001853970289
0.001983964563
0.002120578315
0.928365767002
0.000244140625
0.204057576404
0.189646036686
0.167852858265
0.141484038618
0.113574161823
0.086824913977
0.063212167271
0.043827445075
0.028938515753
0.018196257924
0.010895469866
0.006212013667
0.003371864325
0.001741877380
0.000855866082
0.000399557398
0.000177024371
0.000074579544
0.000030557359
0.000013600201
0.000008735200
0.000009251255
0.000012337692
0.000016913308
0.000022619423
0.000029383060
0.000037239227
0.000046262971
0.000056544906
0.000068182918
0.000081279494
0.000095940930
0.000112277088
0.000130401342
0.000150430560
0.000172485098
0.000196688800
0.000223169000
0.000252056518
0.000283485665
0.000317594238
0.000354523522
0.000394418293
0.000437426811
0.000483700827
0.000533395578
0.000586669792
0.000643685681
0.000704608947
0.000769608779
0.000838857853
0.000912532334
0.000990811873
0.001073879607
0.001161922161
0.001255129647
0.001353695660
0.001457817285
0.001567695089
0.001683533126
0.001805538933
0.001933923534
0.002068901437
0.906494140625
0.000391066074
0.134742703518
0.125226457146
0.110835942520
0.093424003399
0.074994423768
0.057331171436
0.041738949963
0.028938515753
0.019106689034
0.012012949978
0.007191654937
0.004098626158
0.002222777354
0.001146048881
0.000560626880
0.000259009500
0.000111841704
0.000044073575
0.000015007193
0.000003958595
0.000001064090
0.000001916536
0.000004685483
0.000008683664
0.000013702087
0.000019721596
0.000026795531
0.000035004848
0.000044441971
0.000055205309
0.000067397496
0.000081124863
0.000096497283
0.000113628132
0.000132634277
0.000153636076
0.000176757372
0.000202125498
0.000229871276
0.000260129015
0.000293036511
0.000328735052
0.000367369410
0.000409087846
0.000454042111
0.000502387442
0.000554282565
0.000609889692
0.000669374525
0.000732906252
0.000800657549
0.000872804579
0.000949526993
0.001031007929
0.001117434010
0.001208995347
0.001305885537
0.001408301665
0.001516444297
0.001630517490
0.001750728784
0.001877289204
0.002010413263
0.881738722324
0.000596046448
0.084733368377
0.078748980239
0.069699339724
0.058749605446
0.047159855630
0.036051939039
0.026246321811
0.018196257924
0.012012949978
0.007551447269
0.004518943462
0.002573247576
0.001392979393
0.000715259524
0.000346537610
0.000156345500
0.000063358733
0.000020403756
0.000001910463
-0.000005104236
-0.000006817845
-0.000005975235
-0.000003699638
-0.000000394106
0.000003840368
0.000009023461
0.000015221736
0.000022520414
0.000031013226
0.000040798957
0.000051980346
0.000064663751
0.000078959052
0.000094979627
0.000112842344
0.000132667559
0.000154579115
0.000178704347
0.000205174075
0.000234122608
0.000265687743
0.000300010766
0.000337236450
0.000377513055
0.000420992332
0.000467829517
0.000518183335
0.000572216000
0.000630093211
0.000691984156
0.000758061512
0.000828501441
0.000903483593
0.000983191106
0.001067810602
0.001157532194
0.001252549478
0.001353059539
0.001459262945
0.001571363754
0.001689569508
0.001814091235
0.001945143450
0.854111671448
0.000872671604
0.050746262890
0.047162181490
0.041742280199
0.035184351826
0.028243035962
0.021590190844
0.015717184312
0.010895469866
0.007191654937
0.004518943462
0.002701993110
0.001535887506
0.000828174811
0.000421439516
0.000199787226
0.000085103571
0.000028706714
0.000002368487
-0.000009200023
-0.000013748226
-0.000014948413
-0.000014415738
-0.000012792795
-0.000010289474
-0.000006933373
-0.000002678418
0.000002550935
0.000008842810
0.000016291822
0.000024997015
0.000035061198
0.000046590749
0.000059695552
0.000074488985
0.000091087916
0.000109612702
0.000130187187
0.000152938703
0.000177998072
0.000205499602
0.000235581090
0.000268383822
0.000304052570
0.000342735594
0.000384584645
0.000429754959
0.000478405261
0.000530697762
0.000586798163
0.000646875652
0.000711102904
0.000779656081
0.000852714834
0.000930462299
0.001013085101
0.001100773350
0.001193720644
0.001292124067
0.001396184191
0.001506105073
0.001622094258
0.001744362776
0.001873125146
0.823626577854
0.001235961914
0.028944338523
0.026900003748
0.023808500421
0.020067811119
0.016108341888
0.012313286789
0.008962900578
0.006212013667
0.004098626158
0.002573247576
0.001535887506
0.000869689786
0.000464908770
0.000231782915
0.000104233306
0.000037729972
0.000004530975
-0.000011438589
-0.000018872356
-0.000022162387
-0.000023373902
-0.000023397357
-0.000022567019
-0.000020968869
-0.000018583418
-0.000015347667
-0.000011180302
-0.000005991343
0.000000314397
0.000007836125
0.000016676697
0.000026942501
0.000038743424
0.000052192847
0.000067407636
0.000084508149
0.000103618229
0.000124865209
0.000148379910
0.000174296640
0.000202753196
0.000233890864
0.000267854415
0.000304792110
0.000344855698
0.000388200416
0.000434984988
0.000485371626
0.000539526029
0.000597617386
0.000659818371
0.000726305147
0.000797257363
0.000872858157
0.000953294152
0.001038755460
0.001129435680
0.001225531895
0.001327244679
0.001434778090
0.001548339675
0.001668140466
0.001794394984
0.790298461914
0.001702368259
0.015723843181
0.014613210152
0.012933641899
0.010901310587
0.008750001100
0.006687856264
0.004867107993
0.003371864325
0.002222777354
0.001392979393
0.000828174811
0.000464908770
0.000243590174
0.000115484081
0.000044720598
0.000007135946
-0.000012313475
-0.000022332607
-0.000027615587
-0.000030518521
-0.000032132070
-0.000032907221
-0.000032991265
-0.000032395041
-0.000031070510
-0.000028944403
-0.000025931912
-0.000021941928
-0.000016878921
-0.000010643581
-0.000003133027
0.000005759137
0.000016142801
0.000028131345
0.000041841636
0.000057394031
0.000074912374
0.000094523997
0.000116359721
0.000140553855
0.000167244194
0.000196572024
0.000228682117
0.000263722734
0.000301845623
0.000343206021
0.000387962651
0.000436277725
0.000488316943
0.000544249493
0.000604248049
0.000668488773
0.000737151316
0.000810418814
0.000888477892
0.000971518661
0.001059734720
0.001153323155
0.001252484540
0.001357422934
0.001468345885
0.001585464428
0.001708993086
0.754143774509
0.002289772034
0.008136905404
0.007562123626
0.006692859456
0.005640937678
0.004527295387
0.003459607355
0.002516628691
0.001741877380
0.001146048881
0.000715259524
0.000421439516
0.000231782915
0.000115484081
0.000047354681
0.000008862841
-0.000012466348
-0.000024388461
-0.000031378559
-0.000035835331
-0.000038946372
-0.000041243013
-0.000042924011
-0.000044029346
-0.000044526732
-0.000044351741
-0.000043425212
-0.000041660332
-0.000038965343
-0.000035244516
-0.000030398487
-0.000024324355
-0.000016915722
-0.000008062698
0.000002348099
0.000014433536
0.000028313968
0.000044113241
0.000061958687
0.000081981126
0.000104314866
0.000129097703
0.000156470924
0.000186579299
0.000219571089
0.000255598042
0.000294815394
0.000337381871
0.000383459682
0.000433214528
0.000486815595
0.000544435559
0.000606250582
0.000672440314
0.000743187892
0.000818679940
0.000899106571
0.000984661384
0.001075541466
0.001171947391
0.001274083220
0.001382156503
0.001496378275
0.001616963062
0.715180397034
0.003017485142
0.004012941084
0.003729459330
0.003300687666
0.002781718172
0.002232133645
0.001704985304
0.001239079601
0.000855866082
0.000560626880
0.000346537610
0.000199787226
0.000104233306
0.000044720598
0.000008862841
-0.000012445322
-0.000025323664
-0.000033565332
-0.000039345641
-0.000043815262
-0.000047526485
-0.000050706535
-0.000053417037
-0.000055639627
-0.000057318569
-0.000058380528
-0.000058743138
-0.000058318495
-0.000057014489
-0.000054735284
-0.000051381483
-0.000046850179
-0.000041034970
-0.000033825965
-0.000025109783
-0.000014769558
-0.000002684932
0.000011267939
0.000027216387
0.000045291231
0.000065626781
0.000088360833
0.000113634671
0.000141593067
0.000172384282
0.000206160063
0.000243075647
0.000283289757
0.000326964606
0.000374265892
0.000425362802
0.000480428012
0.000539637684
0.000603171467
0.000671212500
0.000743947407
0.000821566300
0.000904262780
0.000992233935
0.001085680338
0.001184806053
0.001289818631
0.001400929108
0.001518352011
0.673427641392
0.003906250000
0.001888613557
0.001755231273
0.001553427603
0.001309053555
0.001050068801
0.000801370586
0.000581175095
0.000399557398
0.000259009500
0.000156345500
0.000085103571
0.000037729972
0.000007135946
-0.000012466348
-0.000025323664
-0.000034280227
-0.000041086873
-0.000046733587
-0.000051727791
-0.000056294323
-0.000060503671
-0.000064346775
-0.000067775201
-0.000070721129
-0.000073106630
-0.000074847687
-0.000075855833
-0.000076038778
-0.000075300630
-0.000073541976
-0.000070659904
-0.000066548011
-0.000061096405
-0.000054191707
-0.000045717048
-0.000035552073
-0.000023572937
-0.000009652308
0.000006340634
0.000024540198
0.000045084179
0.000068113862
0.000093774019
0.000122212910
0.000153582284
0.000188037375
0.000225736908
0.000266843094
0.000311521633
0.000359941711
0.000412276005
0.000468700675
0.000529395372
0.000594543235
0.000664330887
0.000738948443
0.000818589503
0.000903451155
0.000993733974
0.001089642025
0.001191382858
0.001299167514
0.001413210519
0.628906250000
0.004978239536
0.000851553755
0.000791509617
0.000700594539
0.000590363359
0.000473314977
0.000360581956
0.000260313752
0.000177024371
0.000111841704
0.000063358733
0.000028706714
0.000004530975
-0.000012313475
-0.000024388461
-0.000033565332
-0.000041086873
-0.000047705423
-0.000053831446
-0.000059657877
-0.000065249461
-0.000070600055
-0.000075666042
-0.000080384286
-0.000084681057
-0.000088476183
-0.000091684837
-0.000094218280
-0.000095984131
-0.000096886472
-0.000096825882
-0.000095699445
-0.000093400760
-0.000089819934
-0.000084843588
-0.000078354852
-0.000070233372
-0.000060355303
-0.000048593312
-0.000034816581
-0.000018890800
-0.000000678174
0.000019962582
0.000043176240
0.000069111059
0.000097918788
0.000129754663
0.000164777407
0.000203149231
0.000245035836
0.000290606407
0.000340033621
0.000393493640
0.000451166113
0.000513234180
0.000579884465
0.000651307083
0.000727695634
0.000809247207
0.000896162378
0.000988645213
0.001086903264
0.001191147570
0.001301592662
0.581638395786
0.006257057190
0.000372259878
0.000346192311
0.000306642390
0.000258531709
0.000207185567
0.000157349891
0.000112503302
0.000074579544
0.000044073575
0.000020403756
0.000002368487
-0.000011438589
-0.000022332607
-0.000031378559
-0.000039345641
-0.000046733587
-0.000053831446
-0.000060780795
-0.000067628648
-0.000074365470
-0.000080949561
-0.000087321272
-0.000093410644
-0.000099141206
-0.000104431742
-0.000109197055
-0.000113348274
-0.000116792979
-0.000119435239
-0.000121175628
-0.000121911232
-0.000121535647
-0.000119938981
-0.000117007854
-0.000112625398
-0.000106671257
-0.000099021587
-0.000089549055
-0.000078122843
-0.000064608641
-0.000048868654
-0.000030761597
-0.000010142699
0.000013136301
0.000039227150
0.000068285084
0.000100468827
0.000135940590
0.000174866073
0.000217414463
0.000263758434
0.000314074151
0.000368541262
0.000427342907
0.000490665712
0.000558699790
0.000631638743
0.000709679660
0.000793023120
0.000881873186
0.000976437413
0.001076926842
0.001183556002
0.531647682190
0.007767736912
0.000163414185
0.000152257538
0.000135240862
0.000114363696
0.000091791242
0.000069456000
0.000048779008
0.000030557359
0.000015007193
0.000001910463
-0.000009200023
-0.000018872356
-0.000027615587
-0.000035835331
-0.000043815262
-0.000051727791
-0.000059657877
-0.000067628648
-0.000075622837
-0.000083598190
-0.000091497341
-0.000099253579
-0.000106793939
-0.000114040744
-0.000120912319
-0.000127323300
-0.000133184761
-0.000138404263
-0.000142885871
-0.000146530156
-0.000149234204
-0.000150891611
-0.000151392485
-0.000150623445
-0.000148467625
-0.000144804667
-0.000139510728
-0.000132458476
-0.000123517091
-0.000112552264
-0.000099426201
-0.000083997615
-0.000066121737
-0.000045650305
-0.000022431572
0.000003689698
0.000032872228
0.000065278231
0.000101073405
0.000140426937
0.000183511504
0.000230503267
0.000281581878
0.000336930476
0.000396735685
0.000461187622
0.000530479888
0.000604809572
0.000684377254
0.000769386999
0.000860046361
0.000956566382
0.001059161593
0.478959143162
0.009536743164
0.000078789997
0.000073810329
0.000066118625
0.000056491893
0.000045773219
0.000034718028
0.000023886508
0.000013600201
0.000003958595
-0.000005104236
-0.000013748226
-0.000022162387
-0.000030518521
-0.000038946372