# vtk DataFile Version 2.0
TITLE = "Quad data"
ASCII
DATASET STRUCTURED_GRID
DIMENSIONS 65 65 1
POINTS 4225 FLOAT
0.000000 0.000000 0.000000
0.000000 0.015625 0.000000
0.000000 0.031250 0.000000
0.000000 0.046875 0.000000
0.000000 0.062500 0.000000
0.000000 0.078125 0.000000
0.000000 0.093750 0.000000
0.000000 0.109375 0.000000
0.000000 0.125000 0.000000
0.000000 0.140625 0.000000
0.000000 0.156250 0.000000
0.000000 0.171875 0.000000
0.000000 0.187500 0.000000
0.000000 0.203125 0.000000
0.000000 0.218750 0.000000
0.000000 0.234375 0.000000
0.000000 0.250000 0.000000
0.000000 0.265625 0.000000
0.000000 0.281250 0.000000
0.000000 0.296875 0.000000
0.000000 0.312500 0.000000
0.000000 0.328125 0.000000
0.000000 0.343750 0.000000
0.000000 0.359375 0.000000
0.000000 0.375000 0.000000
0.000000 0.390625 0.000000
0.000000 0.406250 0.000000
0.000000 0.421875 0.000000
0.000000 0.437500 0.000000
0.000000 0.453125 0.000000
0.000000 0.468750 0.000000
0.000000 0.484375 0.000000
0.000000 0.500000 0.000000
0.000000 0.515625 0.000000
0.000000 0.531250 0.000000
0.000000 0.546875 0.000000
0.000000 0.562500 0.000000
0.000000 0.578125 0.000000
0.000000 0.593750 0.000000
0.000000 0.609375 0.000000
0.000000 0.625000 0.000000
0.000000 0.640625 0.000000
0.000000 0.656250 0.000000
0.000000 0.671875 0.000000
0.000000 0.687500 0.000000
0.000000 0.703125 0.000000
0.000000 0.718750 0.000000
0.000000 0.734375 0.000000
0.000000 0.750000 0.000000
0.000000 0.765625 0.000000
0.000000 0.781250 0.000000
0.000000 0.796875 0.000000
0.000000 0.812500 0.000000
0.000000 0.828125 0.000000
0.000000 0.843750 0.000000
0.000000 0.859375 0.000000
0.000000 0.875000 0.000000
0.000000 0.890625 0.000000
0.000000 0.906250 0.000000
0.000000 0.921875 0.000000
0.000000 0.937500 0.000000
0.000000 0.953125 0.000000
0.000000 0.968750 0.000000
0.000000 0.984375 0.000000
0.000000 1.000000 0.000000
0.015625 0.000000 0.000000
0.015625 0.015625 0.000000
0.015625 0.031250 0.000000
0.015625 0.046875 0.000000
0.015625 0.062500 0.000000
0.015625 0.078125 0.000000
0.015625 0.093750 0.000000
0.015625 0.109375 0.000000
0.015625 0.125000 0.000000
0.015625 0.140625 0.000000
0.015625 0.156250 0.000000
0.015625 0.171875 0.000000
0.015625 0.187500 0.000000
0.015625 0.203125 0.000000
0.015625 0.218750 0.000000
0.015625 0.234375 0.000000
0.015625 0.250000 0.000000
0.015625 0.265625 0.000000
0.015625 0.281250 0.000000
0.015625 0.296875 0.000000
0.015625 0.312500 0.000000
0.015625 0.328125 0.000000
0.015625 0.343750 0.000000
0.015625 0.359375 0.000000
0.015625 0.375000 0.000000
0.015625 0.390625 0.000000
0.015625 0.406250 0.000000
0.015625 0.421875 0.000000
0.015625 0.437500 0.000000
0.015625 0.453125 0.000000
0.015625 0.468750 0.000000
0.015625 0.484375 0.000000
0.015625 0.500000 0.000000
0.015625 0.515625 0.000000
0.015625 0.531250 0.000000
0.015625 0.546875 0.000000
0.015625 0.562500 0.000000
0.015625 0.578125 0.000000
0.015625 0.593750 0.000000
0.015625 0.609375 0.000000
0.015625 0.625000 0.000000
0.015625 0.640625 0.000000
0.015625 0.656250 0.000000
0.015625 0.671875 0.000000
0.015625 0.687500 0.000000
0.015625 0.703125 0.000000
0.015625 0.718750 0.000000
0.015625 0.734375 0.000000
0.015625 0.750000 0.000000
0.015625 0.765625 0.000000
0.015625 0.781250 0.000000
0.015625 0.796875 0.000000
0.015625 0.812500 0.000000
0.015625 0.828125 0.000000
0.015625 0.843750 0.000000
0.015625 0.859375 0.000000
0.015625 0.875000 0.000000
0.015625 0.890625 0.000000
0.015625 0.906250 0.000000
0.015625 0.921875 0.000000
0.015625 0.937500 0.000000
0.015625 0.953125 0.000000
0.015625 0.968750 0.000000
0.015625 0.984375 0.000000
0.015625 1.000000 0.000000
0.031250 0.000000 0.000000
0.031250 0.015625 0.000000
0.031250 0.031250 0.000000
0.031250 0.046875 0.000000
0.031250 0.062500 0.000000
0.031250 0.078125 0.000000
0.031250 0.093750 0.000000
0.031250 0.109375 0.000000
0.031250 0.125000 0.000000
0.031250 0.140625 0.000000
0.031250 0.156250 0.000000
0.031250 0.171875 0.000000
0.031250 0.187500 0.000000
0.031250 0.203125 0.000000
0.031250 0.218750 0.000000
0.031250 0.234375 0.000000
0.031250 0.250000 0.000000
0.031250 0.265625 0.000000
0.031250 0.281250 0.000000
0.031250 0.296875 0.000000
0.031250 0.312500 0.000000
0.031250 0.328125 0.000000
0.031250 0.343750 0.000000
0.031250 0.359375 0.000000
0.031250 0.375000 0.000000
0.031250 0.390625 0.000000
0.031250 0.406250 0.000000
0.031250 0.421875 0.000000
0.031250 0.437500 0.000000
0.031250 0.453125 0.000000
0.031250 0.468750 0.000000
0.031250 0.484375 0.000000
0.031250 0.500000 0.000000
0.031250 0.515625 0.000000
0.031250 0.531250 0.000000
0.031250 0.546875 0.000000
0.031250 0.562500 0.000000
0.031250 0.578125 0.000000
0.031250 0.593750 0.000000
0.031250 0.609375 0.000000
0.031250 0.625000 0.000000
0.031250 0.640625 0.000000
0.031250 0.656250 0.000000
0.031250 0.671875 0.000000
0.031250 0.687500 0.000000
0.031250 0.703125 0.000000
0.031250 0.718750 0.000000
0.031250 0.734375 0.000000
0.031250 0.750000 0.000000
0.031250 0.765625 0.000000
0.031250 0.781250 0.000000
0.031250 0.796875 0.000000
0.031250 0.812500 0.000000
0.031250 0.828125 0.000000
0.031250 0.843750 0.000000
0.031250 0.859375 0.000000
0.031250 0.875000 0.000000
0.031250 0.890625 0.000000
0.031250 0.906250 0.000000
0.031250 0.921875 0.000000
0.031250 0.937500 0.000000
0.031250 0.953125 0.000000
0.031250 0.968750 0.000000
0.031250 0.984375 0.000000
0.031250 1.000000 0.000000
0.046875 0.000000 0.000000
0.046875 0.015625 0.000000
0.046875 0.031250 0.000000
0.046875 0.046875 0.000000
0.046875 0.062500 0.000000
0.046875 0.078125 0.000000
0.046875 0.093750 0.000000
0.046875 0.109375 0.000000
0.046875 0.125000 0.000000
0.046875 0.140625 0.000000
0.046875 0.156250 0.000000
0.046875 0.171875 0.000000
0.046875 0.187500 0.000000
0.046875 0.203125 0.000000
0.046875 0.218750 0.000000
0.046875 0.234375 0.000000
0.046875 0.250000 0.000000
0.046875 0.265625 0.000000
0.046875 0.281250 0.000000
0.046875 0.296875 0.000000
0.046875 0.312500 0.000000
0.046875 0.328125 0.000000
0.046875 0.343750 0.000000
0.046875 0.359375 0.000000
0.046875 0.375000 0.000000
0.046875 0.390625 0.000000
0.046875 0.406250 0.000000
0.046875 0.421875 0.000000
0.046875 0.437500 0.000000
0.046875 0.453125 0.000000
0.046875 0.468750 0.000000
0.046875 0.484375 0.000000
0.046875 0.500000 0.000000
0.046875 0.515625 0.000000
0.046875 0.531250 0.000000
0.046875 0.546875 0.000000
0.046875 0.562500 0.000000
0.046875 0.578125 0.000000
0.046875 0.593750 0.000000
0.046875 0.609375 0.000000
0.046875 0.625000 0.000000
0.046875 0.640625 0.000000
0.046875 0.656250 0.000000
0.046875 0.671875 0.000000
0.046875 0.687500 0.000000
0.046875 0.703125 0.000000
0.046875 0.718750 0.000000
0.046875 0.734375 0.000000
0.046875 0.750000 0.000000
0.046875 0.765625 0.000000
0.046875 0.781250 0.000000
0.046875 0.796875 0.000000
0.046875 0.812500 0.000000
0.046875 0.828125 0.000000
0.046875 0.843750 0.000000
0.046875 0.859375 0.000000
0.046875 0.875000 0.000000
0.046875 0.890625 0.000000
0.046875 0.906250 0.000000
0.046875 0.921875 0.000000
0.046875 0.937500 0.000000
0.046875 0.953125 0.000000
0.046875 0.968750 0.000000
0.046875 0.984375 0.000000
0.046875 1.000000 0.000000
0.062500 0.000000 0.000000
0.062500 0.015625 0.000000
0.062500 0.031250 0.000000
0.062500 0.046875 0.000000
0.062500 0.062500 0.000000
0.062500 0.078125 0.000000
0.062500 0.093750 0.000000
0.062500 0.109375 0.000000
0.062500 0.125000 0.000000
0.062500 0.140625 0.000000
0.062500 0.156250 0.000000
0.062500 0.171875 0.000000
0.062500 0.187500 0.000000
0.062500 0.203125 0.000000
0.062500 0.218750 0.000000
0.062500 0.234375 0.000000
0.062500 0.250000 0.000000
0.062500 0.265625 0.000000
0.062500 0.281250 0.000000
0.062500 0.296875 0.000000
0.062500 0.312500 0.000000
0.062500 0.328125 0.000000
0.062500 0.343750 0.000000
0.062500 0.359375 0.000000
0.062500 0.375000 0.000000
0.062500 0.390625 0.000000
0.062500 0.406250 0.000000
0.062500 0.421875 0.000000
0.062500 0.437500 0.000000
0.062500 0.453125 0.000000
0.062500 0.468750 0.000000
0.062500 0.484375 0.000000
0.062500 0.500000 0.000000
0.062500 0.515625 0.000000
0.062500 0.531250 0.000000
0.062500 0.546875 0.000000
0.062500 0.562500 0.000000
0.062500 0.578125 0.000000
0.062500 0.593750 0.000000
0.062500 0.609375 0.000000
0.062500 0.625000 0.000000
0.062500 0.640625 0.000000
0.062500 0.656250 0.000000
0.062500 0.671875 0.000000
0.062500 0.687500 0.000000
0.062500 0.703125 0.000000
0.062500 0.718750 0.000000
0.062500 0.734375 0.000000
0.062500 0.750000 0.000000
0.062500 0.765625 0.000000
0.062500 0.781250 0.000000
0.062500 0.796875 0.000000
0.062500 0.812500 0.000000
0.062500 0.828125 0.000000
0.062500 0.843750 0.000000
0.062500 0.859375 0.000000
0.062500 0.875000 0.000000
0.062500 0.890625 0.000000
0.062500 0.906250 0.000000
0.062500 0.921875 0.000000
0.062500 0.937500 0.000000
0.062500 0.953125 0.000000
0.062500 0.968750 0.000000
0.062500 0.984375 0.000000
0.062500 1.000000 0.000000
0.078125 0.000000 0.000000
0.078125 0.015625 0.000000
0.078125 0.031250 0.000000
0.078125 0.046875 0.000000
0.078125 0.062500 0.000000
0.078125 0.078125 0.000000
0.078125 0.093750 0.000000
0.078125 0.109375 0.000000
0.078125 0.125000 0.000000
0.078125 0.140625 0.000000
0.078125 0.156250 0.000000
0.078125 0.171875 0.000000
0.078125 0.187500 0.000000
0.078125 0.203125 0.000000
0.078125 0.218750 0.000000
0.078125 0.234375 0.000000
0.078125 0.250000 0.000000
0.078125 0.265625 0.000000
0.078125 0.281250 0.000000
0.078125 0.296875 0.000000
0.078125 0.312500 0.000000
0.078125 0.328125 0.000000
0.078125 0.343750 0.000000
0.078125 0.359375 0.000000
0.078125 0.375000 0.000000
0.078125 0.390625 0.000000
0.078125 0.406250 0.000000
0.078125 0.421875 0.000000
0.078125 0.437500 0.000000
0.078125 0.453125 0.000000
0.078125 0.468750 0.000000
0.078125 0.484375 0.000000
0.078125 0.500000 0.000000
0.078125 0.515625 0.000000
0.078125 0.531250 0.000000
0.078125 0.546875 0.000000
0.078125 0.562500 0.000000
0.078125 0.578125 0.000000
0.078125 0.593750 0.000000
0.078125 0.609375 0.000000
0.078125 0.625000 0.000000
[...]
POINT_DATA 4225
SCALARS phi FLOAT 1
LOOKUP_TABLE default
0.000000000000
0.000000059605
0.000000953674
0.000004827976
0.000015258789
0.000037252903
0.000077247620
0.000143110752
0.000244140625
0.000391066074
0.000596046448
0.000872671604
0.001235961914
0.001702368259
0.002289772034
0.003017485142
0.003906250000
0.004978239536
0.006257057190
0.007767736912
0.009536743164
0.011591970921
0.013962745667
0.016679823399
0.019775390625
0.023283064365
0.027237892151
0.031676352024
0.036636352539
0.042157232761
0.048279762268
0.055046141148
0.062500000000
0.070686399937
0.079651832581
0.089444220066
0.100112915039
0.111708700657
0.124283790588
0.137891829014
0.152587890625
0.168428480625
0.185471534729
0.203776419163
0.223403930664
0.244416296482
0.266877174377
0.290851652622
0.316406250000
0.343608915806
0.372529029846
0.403237402439
0.435806274414
0.470309317112
0.506821632385
0.545419752598
0.586181640625
0.629186689854
0.674515724182
0.722250998020
0.772476196289
0.825276434422
0.880738258362
0.938949644566
1.000000000000
0.000000059605
-0.000000238419
-0.000000417233
0.000001668930
0.000009596348
0.000028371811
0.000064432621
0.000125646591
0.000221312046
0.000362157822
0.000560343266
0.000829458237
0.001184523106
0.001641988754
0.002219736576
0.002937078476
0.003814756870
0.004874944687
0.006141245365
0.007638692856
0.009393751621
0.011434316635
0.013789713383
0.016490697861
0.019569456577
0.023059606552
0.026996195316
0.031415700912
0.036356031895
0.041856527328
0.047957956791
0.054702520370
0.062133848667
0.070297002792
0.079238474369
0.089006185532
0.099649488926
0.111219167709
0.123767435551
0.137347936630
0.152015745640
0.167827367783
0.184840738773
0.203115224838
0.222711622715
0.243692159653
0.266120493412
0.290061712265
0.315582334995
0.342750310898
0.371635019779
0.402307271957
0.434839308262
0.469304800034
0.505778849125
0.544337987900
0.585060179234
0.628024816513
0.673312723637
0.721006155014
0.771188795567
0.823945760727
0.879363596439
0.937530279160
0.998535215855
0.000000953674
-0.000000417233
-0.000003814697
-0.000007092953
-0.000006675720
0.000002443790
0.000026702881
0.000073969364
0.000153541565
0.000276148319
0.000453948975
0.000700533390
0.001030921936
0.001461565495
0.002010345459
0.002696573734
0.003540992737
0.004565775394
0.005794525146
0.007252275944
0.008965492249
0.010962069035
0.013271331787
0.015924036503
0.018952369690
0.022389948368
0.026271820068
0.030634462833
0.035515785217
0.040955126286
0.046993255615
0.053672373295
0.061036109924
0.069129526615
0.077999114990
0.087692797184
0.098259925842
0.109751284122
0.122219085693
0.135716974735
0.150300025940
0.166024744511
0.182949066162
0.201132357121
0.220635414124
0.241520464420
0.263851165771
0.287692606449
0.313111305237
0.340175211430
0.368953704834
0.399517595768
0.431939125061
0.466291964054
0.502651214600
0.541093409061
0.581696510315
0.624539911747
0.669704437256
0.717272341251
0.767327308655
0.819954454899
0.875240325928
0.933272898197
0.994141578674
0.000004827976
0.000001668930
-0.000007092953
-0.000019311905
-0.000031411648
-0.000038385391
-0.000033795834
-0.000009775162
0.000042974949
0.000135183334
0.000279009342
0.000488042831
0.000777304173
0.001163244247
0.001663744450
0.002298116684
0.003087103367
0.004052877426
0.005219042301
0.006610631943
0.008254110813
0.010177373886
0.012409746647
0.014981985092
0.017926275730
0.021276235580
0.025066912174
0.029334783554
0.034117758274
0.039455175400
0.045387804508
0.051957845688
0.059208929539
0.067186117172
0.075935900211
0.085506200790
0.095946371555
0.107307195663
0.119640886784
0.133001089096
0.147442877293
0.163022756577
0.179798662663
0.197829961777
0.217177450657
0.237903356552
0.260071337223
0.283746480942
0.308995306492
0.335885763168
0.364487230778
0.394870519638
0.427107870579
0.461272954941
0.497440874577
0.535688161850
0.576092779636
0.618734121323
0.663693010807
0.711051702499
0.760893881321
0.813304662704
0.868370592594
0.926179647446
0.986821234226
0.000015258789
0.000009596348
-0.000006675720
-0.000031411648
-0.000061035156
-0.000090539455
-0.000113487244
-0.000122010708
-0.000106811523
-0.000057160854
0.000039100647
0.000195562840
0.000427246094
0.000750601292
0.001183509827
0.001745283604
0.002456665039
0.003339827061
0.004418373108
0.005717337132
0.007263183594
0.009083807468
0.011208534241
0.013668119907
0.016494750977
0.019722044468
0.023385047913
0.027520239353
0.032165527344
0.037360250950
0.043145179749
0.049562513828
0.056655883789
0.064470350742
0.073052406311
0.082449972630
0.092712402344
0.103890478611
0.116036415100
0.129203855991
0.143447875977
0.158824980259
0.175393104553
0.193211615086
0.212341308594
0.232844412327
0.254784584045
0.278226912022
0.303237915039
0.329885542393
0.358239173889
0.388369619846
0.420349121094
0.454251348972
0.490151405334
0.528125822544
0.568252563477
0.610611021519
0.655282020569
0.702347815037
0.751892089844
0.803999960423
0.858757972717
0.916254103184
0.976577758789
0.000037252903
0.000028371811
0.000002443790
-0.000038385391
-0.000090539455
-0.000149011612
-0.000207364559
-0.000257730484
-0.000290811062
-0.000295877457
-0.000260770321
-0.000171899796
-0.000014245510
0.000228643417
0.000574648380
0.001043081284
0.001654684544
0.002431631088
0.003397524357
0.004577398300
0.005997717381
0.007686376572
0.009672701359
0.011987447739
0.014662802219
0.017732381821
0.021231234074
0.025195837021
0.029664099216
0.034675359726
0.040270388126
0.046491384506
0.053381979465
0.060987234116
0.069353640079
0.078529119492
0.088563024998
0.099506139755
0.111410677433
0.124330282211
0.138320028782
0.153436422348
0.169737398624
0.187282323837
0.206131994724
0.226348638535
0.247995913029
0.271138906479
0.295844137669
0.322179555893
0.350214540958
0.380019903183
0.411667883396
0.445232152939
0.480787813663
0.518411397934
0.558180868626
0.600175619125
0.644476473331
0.691165685654
0.740326941013
0.792045354843
0.846407473087
0.903501272202
0.963416159153
0.000077247620
0.000064432621
0.000026702881
-0.000033795834
-0.000113487244
-0.000207364559
-0.000308990479
-0.000410497189
-0.000502586365
-0.000574529171
-0.000614166260
-0.000607907772
-0.000540733337
-0.000396192074
-0.000156402588
0.000197947025
0.000687599182
0.001334726810
0.002162933350
0.003197252750
0.004464149475
0.005991518497
0.007808685303
0.009946405888
0.012436866760
0.015313684940
0.018611907959
0.022368013859
0.026619911194
0.031406939030
0.036769866943
0.042750895023
0.049393653870
0.056743204594
0.064846038818
0.073750078678
0.083504676819
0.094160616398
0.105770111084
0.118386805058
0.132065773010
0.146863520145
0.162837982178
0.180048525333
0.198555946350
0.218422472477
0.239711761475
0.262488901615
0.286820411682
0.312774240971
0.340419769287
0.369827806950
0.401070594788
0.434221804142
0.469356536865
0.506551325321
0.545884132385
0.587434351444
0.631282806396
0.677511751652
0.726204872131
0.777447283268
0.831325531006
0.887927591801
0.947342872620
0.000143110752
0.000125646591
0.000073969364
-0.000009775162
-0.000122010708
-0.000257730484
-0.000410497189
-0.000572443008
-0.000734269619
-0.000885248184
-0.001013219357
-0.001104593277
-0.001144349575
-0.001116037369
-0.001001775265
-0.000782251358
-0.000436723232
0.000056982040
0.000722467899
0.001584768295
0.002670347691
0.004007101059
0.005624353886
0.007552862167
0.009824812412
0.012473821640
0.015534937382
0.019044637680
0.023040831089
0.027562856674
0.032651484013
0.038348913193
0.044698774815
0.051746129990
0.059537470341
0.068120718002
0.077545225620
0.087861776352
0.099122583866
0.111381292343
0.124692976475
0.139114141464
0.154702723026
0.171518087387
0.189621031284
0.209073781967
0.229939997196
0.252284765244
0.276174604893
0.301677465439
0.328862726688
0.357801198959
0.388565123081
0.421228170395
0.455865442753
0.492553472519
0.531370222569
0.572395086288
0.615708887577
0.661393880844
0.709533751011
0.760213613510
0.813520014286
0.869540929794
0.928365767002
0.000244140625
0.000221312046
0.000153541565
0.000042974949
-0.000106811523
-0.000290811062
-0.000502586365
-0.000734269619
-0.000976562500
-0.001218736172
-0.001448631287
-0.001652657986
-0.001815795898
-0.001921594143
-0.001952171326
-0.001888215542
-0.001708984375
-0.001392304897
-0.000914573669
-0.000250756741
0.000625610352
0.001742422581
0.003129005432
0.004816114902
0.006835937500
0.009222090244
0.012009620667
0.015235006809
0.018936157227
0.023152410984
0.027924537659
0.033294737339
0.039306640625
0.046005308628
0.053437232971
0.061650335789
0.070693969727
0.080618917942
0.091477394104
0.103323042393
0.116210937500
0.130197584629
0.145340919495
0.161700308323
0.179336547852
0.198311865330
0.218689918518
0.240535795689
0.263916015625
0.288898527622
0.315552711487
0.343949377537
0.374160766602
0.406260550022
0.440323829651
0.476427137852
0.514648437500
0.555067121983
0.597764015198
0.642821371555
0.690322875977
0.740353643894
0.793000221252
0.848350584507
0.906494140625
0.000391066074
0.000362157822
0.000276148319
0.000135183334
-0.000057160854
-0.000295877457
-0.000574529171
-0.000885248184
-0.001218736172
-0.001564264297
-0.001909673214
-0.002241373062
-0.002544343472
-0.002802133560
-0.002996861935
-0.003109216690
-0.003118455410
-0.003002405167
-0.002737462521
-0.002298593521
-0.001659333706
-0.000791788101
0.000333368778
0.001746892929
0.003480970860
0.005569219589
0.008046686649
0.010949850082
0.014316618443
0.018186330795
0.022599756718
0.027599096298
0.033227980137
0.039531469345
0.046556055546
0.054349660873
0.062961637974
0.072442770004
0.082845270634
0.094222784042
0.106630384922
0.120124578476
0.134763300419
0.150605916977
0.167713224888
0.186147451401
0.205972254276
0.227252721786
0.250055372715
0.274448156357
0.300500452518
0.328283071518
0.357868254185
0.389329671860
0.422742426395
0.458183050156
0.495729506016
0.535461187363
0.577458918095
0.621804952621
0.668582975864
0.717878103256
0.769776880741
0.824367284775
0.881738722324
0.000596046448
0.000560343266
0.000453948975
0.000279009342
0.000039100647
-0.000260770321
-0.000614166260
-0.001013219357
-0.001448631287
-0.001909673214
-0.002384185791
-0.002858579159
-0.003317832947
-0.003745496273
-0.004123687744
-0.004433095455
-0.004652976990
-0.004761159420
-0.004734039307
-0.004546582699
-0.004172325134
-0.003583371639
-0.002750396729
-0.001642644405
-0.000227928162
0.001527369022
0.003658294678
0.006201326847
0.009194374084
0.012676775455
0.016689300537
0.021274149418
0.026474952698
0.032336771488
0.038906097412
0.046230852604
0.054360389709
0.063345491886
0.073238372803
0.084092676640
0.095963478088
0.108907282352
0.122982025146
0.138247072697
0.154763221741
0.172592699528
0.191799163818
0.212447702885
0.234604835510
0.258338510990
0.283718109131
0.310814440250
0.339699745178
0.370447695255
0.403133392334
0.437833368778
0.474625587463
0.513589441776
0.554805755615
0.598356783390
0.644326210022
0.692799150944
0.743862152100
0.797603189945
0.854111671448
0.000872671604
0.000829458237
0.000700533390
0.000488042831
0.000195562840
-0.000171899796
-0.000607907772
-0.001104593277
-0.001652657986
-0.002241373062
-0.002858579159
-0.003490686417
-0.004122674465
-0.004738092422
-0.005319058895
-0.005846261978
-0.006298959255
-0.006654977798
-0.006890714169
-0.006981134415
-0.006899774075
-0.006618738174
-0.006108701229
-0.005338907242
-0.004277169704
-0.002889871597
-0.001141965389
0.001003026962
0.003583014011
0.006637334824
0.010206758976
0.014333486557
0.019061148167
0.024434804916
0.030500948429
0.037307500839
0.044903814793
0.053340673447
0.062670290470
0.072946310043
0.084223806858
0.096559286118
0.110010683537
0.124637365341
0.140500128269
0.157661199570
0.176184237003
0.196134328842
0.217577993870
0.240583181381
0.265219271183
0.291557073593
0.319668829441
0.349628210068
0.381510317326
0.415391683578
0.451350271702
0.489465475082
0.529818117619
0.572490453720
0.617566168308
0.665130376816
0.715269625187
0.768071889877
0.823626577854
0.001235961914
0.001184523106
0.001030921936
0.000777304173
0.000427246094
-0.000014245510
-0.000540733337
-0.001144349575
-0.001815795898
-0.002544343472
-0.003317832947
-0.004122674465
-0.004943847656
-0.005764901638
-0.006567955017
-0.007333695889
-0.008041381836
-0.008668839931
-0.009192466736
-0.009587228298
-0.009826660156
-0.009882867336
-0.009726524353
-0.009326875210
-0.008651733398
-0.007667481899
-0.006339073181
-0.004630029202
-0.002502441406
0.000083029270
0.003167152405
0.006792128086
0.011001586914
0.015840590000
0.021355628967
0.027594625950
0.034606933594
0.042443335056
0.051156044006
0.060798704624
0.071426391602
0.083095610142
0.095864295959
0.109791815281
0.124938964844
0.141367971897
0.159142494202
0.178327620029
0.198989868164
0.221197187901
0.245018959045
0.270525991917
0.297790527344
0.326886236668
0.357888221741
0.390873014927
0.425918579102
0.463104307652
0.502511024475
0.544220983982
0.588317871094
0.634886801243
0.684014320374
0.735788404942
0.790298461914
0.001702368259
0.001641988754
0.001461565495
0.001163244247
0.000750601292
0.000228643417
-0.000396192074
-0.001116037369
-0.001921594143
-0.002802133560
-0.003745496273
-0.004738092422
-0.005764901638
-0.006809473038
-0.007853925228
-0.008878946304
-0.009863793850
-0.010786294937
-0.011622846127
-0.012348413467
-0.012936532497
-0.013359308243
-0.013587415218
-0.013590097427
-0.013335168362
-0.012789011002
-0.011916577816
-0.010681390762
-0.009045541286
-0.006969690323
-0.004413068295
-0.001333475113
0.002312719822
0.006570577621
0.011486589909
0.017108678818
0.023486196995
0.030669927597
0.038712084293
0.047666311264
0.057587683201
0.068532705307
0.080559313297
0.093726873398
0.108096182346
0.123729467392
0.140690386295
0.159044027328
0.178856909275
0.200196981430
0.223133623600
0.247737646103
0.274081289768
0.302238225937
0.332283556461
0.364293813705
0.398346960545
0.434522390366
0.472900927067
0.513564825058
0.556597769260
0.602084875107
0.650112688541
0.700769186020
0.754143774509
0.002289772034
0.002219736576
0.002010345459
0.001663744450
0.001183509827
0.000574648380
-0.000156402588
-0.001001775265
-0.001952171326
-0.002996861935
-0.004123687744
-0.005319058895
-0.006567955017
-0.007853925228
-0.009159088135
-0.010464131832
-0.011748313904
-0.012989461422
-0.014163970947
-0.015246808529
-0.016211509705
-0.017030179501
-0.017673492432
-0.018110692501
-0.018309593201
-0.018236577511
-0.017856597900
-0.017133176327
-0.016028404236
-0.014502942562
-0.012516021729
-0.010025441647
-0.006987571716
-0.003357350826
0.000911712646
0.005867540836
0.011559486389
0.018038332462
0.025356292725
0.033567011356
0.042725563049
0.052888453007
0.064113616943
0.076460421085
0.089989662170
0.104763567448
0.120845794678
0.138301432133
0.157196998596
0.177600443363
0.199581146240
0.223209917545
0.248558998108
0.275702059269
0.304714202881
0.335671961308
0.368653297424
0.403737604618
0.441005706787
0.480539858341
0.522423744202
0.566742479801
0.613582611084
0.663032114506
0.715180397034
0.003017485142
0.002937078476
0.002696573734
0.002298116684
0.001745283604
0.001043081284
0.000197947025
-0.000782251358
-0.001888215542
-0.003109216690
-0.004433095455
-0.005846261978
-0.007333695889
-0.008878946304
-0.010464131832
-0.012069940567
-0.013675630093
-0.015259027481
-0.016796529293
-0.018263101578
-0.019632279873
-0.020876169205
-0.021965444088
-0.022869348526
-0.023555696011
-0.023990869522
-0.024139821529
-0.023966073990
-0.023431718349
-0.022497415543
-0.021122395992
-0.019264459610
-0.016879975796
-0.013923883438
-0.010349690914
-0.006109476089
-0.001153886318
0.004567861557
0.011107981205
0.018520116806
0.026859343052
0.036182165146
0.046546518803
0.058011770248
0.070638716221
0.084489583969
0.099628031254
0.116119146347
0.134029448032
0.153426885605
0.174380838871
0.196962118149
0.221242964268
0.247297048569
0.275199472904
0.305026769638
0.336856901646
0.370769262314
0.406844675541
0.445165395737
0.485815107822
0.528878927231
0.574443399906
0.622596502304
0.673427641392
0.003906250000
0.003814756870
0.003540992737
0.003087103367
0.002456665039
0.001654684544
0.000687599182
-0.000436723232
-0.001708984375
-0.003118455410
-0.004652976990
-0.006298959255
-0.008041381836
-0.009863793850
-0.011748313904
-0.013675630093
-0.015625000000
-0.017574250698
-0.019499778748
-0.021376550198
-0.023178100586
-0.024876534939
-0.026442527771
-0.027845323086
-0.029052734375
-0.030031144619
-0.030745506287
-0.031159341335
-0.031234741211
-0.030932366848
-0.030211448669
-0.029029786587
-0.027343750000
-0.025108277798
-0.022276878357
-0.018801629543
-0.014633178711
-0.009720742702
-0.004012107849
0.002546370029
0.010009765625
0.018434584141
0.027878761292
0.038401663303
0.050064086914
0.062928259373
0.077057838440
0.092517912388
0.109375000000
0.127697050571
0.147553443909
0.169014990330
0.192153930664
0.217043936253
0.243760108948
0.272378981113
0.302978515625
0.335638105869
0.370438575745
0.407462179661
0.446792602539
0.488514959812
0.532715797424
0.579483091831
0.628906250000
0.004978239536
0.004874944687
0.004565775394
0.004052877426
0.003339827061
0.002431631088
0.001334726810
0.000056982040
-0.001392304897
-0.003002405167
-0.004761159420
-0.006654977798
-0.008668839931
-0.010786294937
-0.012989461422
-0.015259027481
-0.017574250698
-0.019912958145
-0.022251546383
-0.024564981461
-0.026826798916
-0.029009103775
-0.031082570553
-0.033016443253
-0.034778535366
-0.036335229874
-0.037651479244
-0.038690805435
-0.039415299892
-0.039785623550
-0.039761006832
-0.039299249649
-0.038356721401
-0.036888360977
-0.034847676754
-0.032186746597
-0.028856217861
-0.024805307388
-0.019981801510
-0.014332056046
-0.007800996304
-0.000332117081
0.008132517338
0.017652273178
0.028287947178
0.040101766586
0.053157389164
0.067519903183
0.083255827427
0.100433111191
0.119121134281
0.139390707016
0.161314070225
0.184964895248
0.210418283939
0.237750768661
0.267040312290
0.298366308212
0.331809580326
0.367452383041
0.405378401279
0.445672750473
0.488421976566
0.533714056015
0.581638395786
0.006257057190
0.006141245365
0.005794525146
0.005219042301
0.004418373108
0.003397524357
0.002162933350
0.000722467899
-0.000914573669
-0.002737462521
-0.004734039307
-0.006890714169
-0.009192466736
-0.011622846127
-0.014163970947
-0.016796529293
-0.019499778748
-0.022251546383
-0.025028228760
-0.027804791927
-0.030554771423
-0.033250272274
-0.035861968994
-0.038359105587
-0.040709495544
-0.042879521847
-0.044834136963
-0.046536862850
-0.047949790955
-0.049033582211
-0.049747467041
-0.050049245358
-0.049895286560
-0.049240529537
-0.048038482666
-0.046241223812
-0.043799400330
-0.040662229061
-0.036777496338
-0.032091557980
-0.026549339294
-0.020094335079
-0.012668609619
-0.004212796688
0.005333900452
0.016033709049
0.027950286865
0.041148722172
0.055695533752
0.071658670902
0.089107513428
0.108112871647
0.128746986389
0.151083528996
0.175197601318
0.201165735722
0.229065895081
0.258977472782
0.290981292725
0.325159609318
0.361596107483
0.400375902653
0.441585540771
0.485312998295
0.531647682190
0.007767736912
0.007638692856
0.007252275944
0.006610631943
0.005717337132
0.004577398300
0.003197252750
0.001584768295
-0.000250756741
-0.002298593521
-0.004546582699
-0.006981134415
-0.009587228298
-0.012348413467
-0.015246808529
-0.018263101578
-0.021376550198
-0.024564981461
-0.027804791927
-0.031070947647
-0.034336984158
-0.037575006485
-0.040755689144
-0.043848276138
-0.046820580959
-0.049638986588
-0.052268445492
-0.054672479630
-0.056813180447
-0.058651208878
-0.060145795345
-0.061254739761
-0.061934411526
-0.062139749527
-0.061824262142
-0.060940027237
-0.059437692165
-0.057266473770
-0.054374158382
-0.050707101822
-0.046210229397
-0.040827035904
-0.034499585629
-0.027168512344
-0.018773019314
-0.009250879288
0.001461565495
0.013429403305
0.026719152927
0.041398763657
0.057537615299
0.075206518173
0.094477713108
0.115424871445
0.138123095036
0.162648916245
0.189080297947
0.217496633530
0.247978746891
0.280608892441
0.315470755100
0.352649450302
0.392231523991
0.434304952621
0.478959143162
0.009536743164
0.009393751621
0.008965492249
0.008254110813