# vtk DataFile Version 2.0
TITLE = "Quad data"
ASCII
DATASET STRUCTURED_GRID
DIMENSIONS 65 65 1
POINTS 4225 FLOAT
0.000000 0.000000 0.000000
0.000000 0.015625 0.000000
0.000000 0.031250 0.000000
0.000000 0.046875 0.000000
0.000000 0.062500 0.000000
0.000000 0.078125 0.000000
0.000000 0.093750 0.000000
0.000000 0.109375 0.000000
0.000000 0.125000 0.000000
0.000000 0.140625 0.000000
0.000000 0.156250 0.000000
0.000000 0.171875 0.000000
0.000000 0.187500 0.000000
0.000000 0.203125 0.000000
0.000000 0.218750 0.000000
0.000000 0.234375 0.000000
0.000000 0.250000 0.000000
0.000000 0.265625 0.000000
0.000000 0.281250 0.000000
0.000000 0.296875 0.000000
0.000000 0.312500 0.000000
0.000000 0.328125 0.000000
0.000000 0.343750 0.000000
0.000000 0.359375 0.000000
0.000000 0.375000 0.000000
0.000000 0.390625 0.000000
0.000000 0.406250 0.000000
0.000000 0.421875 0.000000
0.000000 0.437500 0.000000
0.000000 0.453125 0.000000
0.000000 0.468750 0.000000
0.000000 0.484375 0.000000
0.000000 0.500000 0.000000
0.000000 0.515625 0.000000
0.000000 0.531250 0.000000
0.000000 0.546875 0.000000
0.000000 0.562500 0.000000
0.000000 0.578125 0.000000
0.000000 0.593750 0.000000
0.000000 0.609375 0.000000
0.000000 0.625000 0.000000
0.000000 0.640625 0.000000
0.000000 0.656250 0.000000
0.000000 0.671875 0.000000
0.000000 0.687500 0.000000
0.000000 0.703125 0.000000
0.000000 0.718750 0.000000
0.000000 0.734375 0.000000
0.000000 0.750000 0.000000
0.000000 0.765625 0.000000
0.000000 0.781250 0.000000
0.000000 0.796875 0.000000
0.000000 0.812500 0.000000
0.000000 0.828125 0.000000
0.000000 0.843750 0.000000
0.000000 0.859375 0.000000
0.000000 0.875000 0.000000
0.000000 0.890625 0.000000
0.000000 0.906250 0.000000
0.000000 0.921875 0.000000
0.000000 0.937500 0.000000
0.000000 0.953125 0.000000
0.000000 0.968750 0.000000
0.000000 0.984375 0.000000
0.000000 1.000000 0.000000
0.015625 0.000000 0.000000
0.015625 0.015625 0.000000
0.015625 0.031250 0.000000
0.015625 0.046875 0.000000
0.015625 0.062500 0.000000
0.015625 0.078125 0.000000
0.015625 0.093750 0.000000
0.015625 0.109375 0.000000
0.015625 0.125000 0.000000
0.015625 0.140625 0.000000
0.015625 0.156250 0.000000
0.015625 0.171875 0.000000
0.015625 0.187500 0.000000
0.015625 0.203125 0.000000
0.015625 0.218750 0.000000
0.015625 0.234375 0.000000
0.015625 0.250000 0.000000
0.015625 0.265625 0.000000
0.015625 0.281250 0.000000
0.015625 0.296875 0.000000
0.015625 0.312500 0.000000
0.015625 0.328125 0.000000
0.015625 0.343750 0.000000
0.015625 0.359375 0.000000
0.015625 0.375000 0.000000
0.015625 0.390625 0.000000
0.015625 0.406250 0.000000
0.015625 0.421875 0.000000
0.015625 0.437500 0.000000
0.015625 0.453125 0.000000
0.015625 0.468750 0.000000
0.015625 0.484375 0.000000
0.015625 0.500000 0.000000
0.015625 0.515625 0.000000
0.015625 0.531250 0.000000
0.015625 0.546875 0.000000
0.015625 0.562500 0.000000
0.015625 0.578125 0.000000
0.015625 0.593750 0.000000
0.015625 0.609375 0.000000
0.015625 0.625000 0.000000
0.015625 0.640625 0.000000
0.015625 0.656250 0.000000
0.015625 0.671875 0.000000
0.015625 0.687500 0.000000
0.015625 0.703125 0.000000
0.015625 0.718750 0.000000
0.015625 0.734375 0.000000
0.015625 0.750000 0.000000
0.015625 0.765625 0.000000
0.015625 0.781250 0.000000
0.015625 0.796875 0.000000
0.015625 0.812500 0.000000
0.015625 0.828125 0.000000
0.015625 0.843750 0.000000
0.015625 0.859375 0.000000
0.015625 0.875000 0.000000
0.015625 0.890625 0.000000
0.015625 0.906250 0.000000
0.015625 0.921875 0.000000
0.015625 0.937500 0.000000
0.015625 0.953125 0.000000
0.015625 0.968750 0.000000
0.015625 0.984375 0.000000
0.015625 1.000000 0.000000
0.031250 0.000000 0.000000
0.031250 0.015625 0.000000
0.031250 0.031250 0.000000
0.031250 0.046875 0.000000
0.031250 0.062500 0.000000
0.031250 0.078125 0.000000
0.031250 0.093750 0.000000
0.031250 0.109375 0.000000
0.031250 0.125000 0.000000
0.031250 0.140625 0.000000
0.031250 0.156250 0.000000
0.031250 0.171875 0.000000
0.031250 0.187500 0.000000
0.031250 0.203125 0.000000
0.031250 0.218750 0.000000
0.031250 0.234375 0.000000
0.031250 0.250000 0.000000
0.031250 0.265625 0.000000
0.031250 0.281250 0.000000
0.031250 0.296875 0.000000
0.031250 0.312500 0.000000
0.031250 0.328125 0.000000
0.031250 0.343750 0.000000
0.031250 0.359375 0.000000
0.031250 0.375000 0.000000
0.031250 0.390625 0.000000
0.031250 0.406250 0.000000
0.031250 0.421875 0.000000
0.031250 0.437500 0.000000
0.031250 0.453125 0.000000
0.031250 0.468750 0.000000
0.031250 0.484375 0.000000
0.031250 0.500000 0.000000
0.031250 0.515625 0.000000
0.031250 0.531250 0.000000
0.031250 0.546875 0.000000
0.031250 0.562500 0.000000
0.031250 0.578125 0.000000
0.031250 0.593750 0.000000
0.031250 0.609375 0.000000
0.031250 0.625000 0.000000
0.031250 0.640625 0.000000
0.031250 0.656250 0.000000
0.031250 0.671875 0.000000
0.031250 0.687500 0.000000
0.031250 0.703125 0.000000
0.031250 0.718750 0.000000
0.031250 0.734375 0.000000
0.031250 0.750000 0.000000
0.031250 0.765625 0.000000
0.031250 0.781250 0.000000
0.031250 0.796875 0.000000
0.031250 0.812500 0.000000
0.031250 0.828125 0.000000
0.031250 0.843750 0.000000
0.031250 0.859375 0.000000
0.031250 0.875000 0.000000
0.031250 0.890625 0.000000
0.031250 0.906250 0.000000
0.031250 0.921875 0.000000
0.031250 0.937500 0.000000
0.031250 0.953125 0.000000
0.031250 0.968750 0.000000
0.031250 0.984375 0.000000
0.031250 1.000000 0.000000
0.046875 0.000000 0.000000
0.046875 0.015625 0.000000
0.046875 0.031250 0.000000
0.046875 0.046875 0.000000
0.046875 0.062500 0.000000
0.046875 0.078125 0.000000
0.046875 0.093750 0.000000
0.046875 0.109375 0.000000
0.046875 0.125000 0.000000
0.046875 0.140625 0.000000
0.046875 0.156250 0.000000
0.046875 0.171875 0.000000
0.046875 0.187500 0.000000
0.046875 0.203125 0.000000
0.046875 0.218750 0.000000
0.046875 0.234375 0.000000
0.046875 0.250000 0.000000
0.046875 0.265625 0.000000
0.046875 0.281250 0.000000
0.046875 0.296875 0.000000
0.046875 0.312500 0.000000
0.046875 0.328125 0.000000
0.046875 0.343750 0.000000
0.046875 0.359375 0.000000
0.046875 0.375000 0.000000
0.046875 0.390625 0.000000
0.046875 0.406250 0.000000
0.046875 0.421875 0.000000
0.046875 0.437500 0.000000
0.046875 0.453125 0.000000
0.046875 0.468750 0.000000
0.046875 0.484375 0.000000
0.046875 0.500000 0.000000
0.046875 0.515625 0.000000
0.046875 0.531250 0.000000
0.046875 0.546875 0.000000
0.046875 0.562500 0.000000
0.046875 0.578125 0.000000
0.046875 0.593750 0.000000
0.046875 0.609375 0.000000
0.046875 0.625000 0.000000
0.046875 0.640625 0.000000
0.046875 0.656250 0.000000
0.046875 0.671875 0.000000
0.046875 0.687500 0.000000
0.046875 0.703125 0.000000
0.046875 0.718750 0.000000
0.046875 0.734375 0.000000
0.046875 0.750000 0.000000
0.046875 0.765625 0.000000
0.046875 0.781250 0.000000
0.046875 0.796875 0.000000
0.046875 0.812500 0.000000
0.046875 0.828125 0.000000
0.046875 0.843750 0.000000
0.046875 0.859375 0.000000
0.046875 0.875000 0.000000
0.046875 0.890625 0.000000
0.046875 0.906250 0.000000
0.046875 0.921875 0.000000
0.046875 0.937500 0.000000
0.046875 0.953125 0.000000
0.046875 0.968750 0.000000
0.046875 0.984375 0.000000
0.046875 1.000000 0.000000
0.062500 0.000000 0.000000
0.062500 0.015625 0.000000
0.062500 0.031250 0.000000
0.062500 0.046875 0.000000
0.062500 0.062500 0.000000
0.062500 0.078125 0.000000
0.062500 0.093750 0.000000
0.062500 0.109375 0.000000
0.062500 0.125000 0.000000
0.062500 0.140625 0.000000
0.062500 0.156250 0.000000
0.062500 0.171875 0.000000
0.062500 0.187500 0.000000
0.062500 0.203125 0.000000
0.062500 0.218750 0.000000
0.062500 0.234375 0.000000
0.062500 0.250000 0.000000
0.062500 0.265625 0.000000
0.062500 0.281250 0.000000
0.062500 0.296875 0.000000
0.062500 0.312500 0.000000
0.062500 0.328125 0.000000
0.062500 0.343750 0.000000
0.062500 0.359375 0.000000
0.062500 0.375000 0.000000
0.062500 0.390625 0.000000
0.062500 0.406250 0.000000
0.062500 0.421875 0.000000
0.062500 0.437500 0.000000
0.062500 0.453125 0.000000
0.062500 0.468750 0.000000
0.062500 0.484375 0.000000
0.062500 0.500000 0.000000
0.062500 0.515625 0.000000
0.062500 0.531250 0.000000
0.062500 0.546875 0.000000
0.062500 0.562500 0.000000
0.062500 0.578125 0.000000
0.062500 0.593750 0.000000
0.062500 0.609375 0.000000
0.062500 0.625000 0.000000
0.062500 0.640625 0.000000
0.062500 0.656250 0.000000
0.062500 0.671875 0.000000
0.062500 0.687500 0.000000
0.062500 0.703125 0.000000
0.062500 0.718750 0.000000
0.062500 0.734375 0.000000
0.062500 0.750000 0.000000
0.062500 0.765625 0.000000
0.062500 0.781250 0.000000
0.062500 0.796875 0.000000
0.062500 0.812500 0.000000
0.062500 0.828125 0.000000
0.062500 0.843750 0.000000
0.062500 0.859375 0.000000
0.062500 0.875000 0.000000
0.062500 0.890625 0.000000
0.062500 0.906250 0.000000
0.062500 0.921875 0.000000
0.062500 0.937500 0.000000
0.062500 0.953125 0.000000
0.062500 0.968750 0.000000
0.062500 0.984375 0.000000
0.062500 1.000000 0.000000
0.078125 0.000000 0.000000
0.078125 0.015625 0.000000
0.078125 0.031250 0.000000
0.078125 0.046875 0.000000
0.078125 0.062500 0.000000
0.078125 0.078125 0.000000
0.078125 0.093750 0.000000
0.078125 0.109375 0.000000
0.078125 0.125000 0.000000
0.078125 0.140625 0.000000
0.078125 0.156250 0.000000
0.078125 0.171875 0.000000
0.078125 0.187500 0.000000
0.078125 0.203125 0.000000
0.078125 0.218750 0.000000
0.078125 0.234375 0.000000
0.078125 0.250000 0.000000
0.078125 0.265625 0.000000
0.078125 0.281250 0.000000
0.078125 0.296875 0.000000
0.078125 0.312500 0.000000
0.078125 0.328125 0.000000
0.078125 0.343750 0.000000
0.078125 0.359375 0.000000
0.078125 0.375000 0.000000
0.078125 0.390625 0.000000
0.078125 0.406250 0.000000
0.078125 0.421875 0.000000
0.078125 0.437500 0.000000
0.078125 0.453125 0.000000
0.078125 0.468750 0.000000
0.078125 0.484375 0.000000
0.078125 0.500000 0.000000
0.078125 0.515625 0.000000
0.078125 0.531250 0.000000
0.078125 0.546875 0.000000
0.078125 0.562500 0.000000
0.078125 0.578125 0.000000
0.078125 0.593750 0.000000
0.078125 0.609375 0.000000
0.078125 0.625000 0.000000
[...]
POINT_DATA 4225
SCALARS phi FLOAT 1
LOOKUP_TABLE default
0.000000000000
0.000000059605
0.000000953674
0.000004827976
0.000015258789
0.000037252903
0.000077247620
0.000143110752
0.000244140625
0.000391066074
0.000596046448
0.000872671604
0.001235961914
0.001702368259
0.002289772034
0.003017485142
0.003906250000
0.004978239536
0.006257057190
0.007767736912
0.009536743164
0.011591970921
0.013962745667
0.016679823399
0.019775390625
0.023283064365
0.027237892151
0.031676352024
0.036636352539
0.042157232761
0.048279762268
0.055046141148
0.062500000000
0.070686399937
0.079651832581
0.089444220066
0.100112915039
0.111708700657
0.124283790588
0.137891829014
0.152587890625
0.168428480625
0.185471534729
0.203776419163
0.223403930664
0.244416296482
0.266877174377
0.290851652622
0.316406250000
0.343608915806
0.372529029846
0.403237402439
0.435806274414
0.470309317112
0.506821632385
0.545419752598
0.586181640625
0.629186689854
0.674515724182
0.722250998020
0.772476196289
0.825276434422
0.880738258362
0.938949644566
1.000000000000
0.000000059605
0.373568651447
0.355069298533
0.318961004977
0.272061767228
0.220869960262
0.170936377864
0.126296727831
0.089244108155
0.060470026784
0.039462290448
0.024998820512
0.015597453663
0.009840019367
0.006550984201
0.004854735562
0.004154444955
0.004074229214
0.004394547831
0.004997013040
0.005824040736
0.006852492955
0.008077938276
0.009505925142
0.011147427825
0.013016575111
0.015129545837
0.017504031217
0.020158964730
0.023114378798
0.026391324593
0.030011826516
0.033998858483
0.038376335997
0.043169121233
0.048403040095
0.054104911316
0.060302588626
0.067025017809
0.074302311452
0.082165845161
0.090648380347
0.099784220245
0.109609407852
0.120161977170
0.131482272595
0.143613356079
0.156601528088
0.170496997164
0.185354745529
0.201235655879
0.218207990686
0.236349354461
0.255749329968
0.276513075958
0.298766334232
0.322662572343
0.348393497535
0.376205169563
0.406424016778
0.439501787338
0.476100293190
0.517269547481
0.564873384234
0.998535215855
0.000000953674
0.355069298533
0.342835626658
0.311590383152
0.268397422131
0.219961042893
0.171969977300
0.128573226520
0.092182303222
0.063618813781
0.042503550119
0.027736364016
0.017934478519
0.011751100340
0.008054708455
0.005991150650
0.004969028716
0.004608123823
0.004679711154
0.005054646974
0.005664864046
0.006477835141
0.007481036781
0.008673116377
0.010059116839
0.011647971915
0.013451200416
0.015482211093
0.017755916352
0.020288506773
0.023097315294
0.026200736598
0.029618184485
0.033370078403
0.037477854801
0.041964001668
0.046852116639
0.052166990734
0.057934721423
0.064182860490
0.070940604212
0.078239035813
0.086111433269
0.094593659469
0.103724656887
0.113547075714
0.124108073460
0.135460336196
0.147663388542
0.160785282927
0.174904791843
0.190114274879
0.206523463384
0.224264513284
0.243498844450
0.264426555297
0.287299651666
0.312441108889
0.340273192136
0.371361098722
0.406483110204
0.446748567544
0.493804452210
0.550203048702
0.994141578674
0.000004827976
0.318961004977
0.311590383152
0.285921088261
0.248412729489
0.205329949246
0.162032549930
0.122465936055
0.088973179427
0.062426684709
0.042580521783
0.028506490344
0.018994306003
0.012844917366
0.009038447790
0.006795910312
0.005570636767
0.005005046352
0.004878844779
0.005063232719
0.005486518611
0.006111021618
0.006918800010
0.007903367107
0.009065081815
0.010408633660
0.011941662847
0.013673980484
0.015617108492
0.017783997153
0.020188849030
0.022847012732
0.025774927231
0.028990106367
0.032511158357
0.036357838520
0.040551136107
0.045113398426
0.050068497807
0.055442049441
0.061261691085
0.067557439142
0.074362140070
0.081712041691
0.089647516346
0.098213977345
0.107463042817
0.117454018221
0.128255791796
0.139949269122
0.152630517305
0.166414852332
0.181442194129
0.197884147674
0.215953469835
0.235916890300
0.258112738921
0.282975604466
0.311071498049
0.343149006083
0.380215047926
0.423648182863
0.475366203040
0.538059012609
0.986821234226
0.000015258789
0.272061767228
0.268397422131
0.248412729489
0.217584665933
0.181355549555
0.144442470186
0.110359978330
0.081240074990
0.057936127119
0.040320895192
0.027659502672
0.018954060302
0.013198410107
0.009526314339
0.007268693272
0.005950094027
0.005254583767
0.004983358795
0.005016681582
0.005284974686
0.005749187106
0.006388496861
0.007193041461
0.008159769630
0.009290099736
0.010588579332
0.012062091352
0.013719364491
0.015570661917
0.017627582920
0.019902942610
0.022410710494
0.025165997386
0.028185085440
0.031485499848
0.035086123846
0.039007361447
0.043271355213
0.047902269517
0.052926653413
0.058373901703
0.064276838288
0.070672453056
0.077602832425
0.085116335488
0.093269083200
0.102126848465
0.111767462365
0.122283888864
0.133788170960
0.146416521347
0.160335928715
0.175752789900
0.192924276930
0.212173435144
0.233909424238
0.258654910810
0.287083453587
0.320070799437
0.358765138406
0.404681737034
0.459824555843
0.526825655301
0.976577758789
0.000037252903
0.220869960262
0.219961042893
0.205329949246
0.181355549555
0.152492056247
0.122656102042
0.094805683503
0.070774413668
0.051345145310
0.036486790243
0.025655734029
0.018076808049
0.012952904870
0.009588845147
0.007441454007
0.006119855378
0.005360242207
0.004993172563
0.004913721480
0.005058564109
0.005390246321
0.005887207650
0.006537782006
0.007336692290
0.008283008315
0.009378932059
0.010629048341
0.012039845239
0.013619400600
0.015377179283
0.017323910638
0.019471529006
0.021833167692
0.024423201945
0.027257340276
0.030352766728
0.033728339815
0.037404857142
0.041405398293
0.045755762901
0.050485025873
0.055626238394
0.061217311092
0.067302126213
0.073931938995
0.081167145549
0.089079517083
0.097755029901
0.107297459879
0.117832962380
0.129515928810
0.142536505853
0.157130291467
0.173590894870
0.192286279729
0.213680113857
0.238359728820
0.267072720089
0.300774575756
0.340689687801
0.388386939251
0.445867363878
0.515653153342
0.963416159153
0.000077247620
0.170936377864
0.171969977300
0.162032549930
0.144442470186
0.122656102042
0.099759978400
0.078120200154
0.059237409935
0.043793146196
0.031827047434
0.022967474099
0.016648852658
0.012275524963
0.009320192512
0.007365541957
0.006107141278
0.005336096780
0.004915343500
0.004757599073
0.004808240968
0.005033430483
0.005412485768
0.005933217584
0.006589139060
0.007377788761
0.008299695530
0.009357715188
0.010556591749
0.011902663892
0.013403673394
0.015068651071
0.016907866229
0.018932831969
0.021156363203
0.023592687861
0.026257615058
0.029168767259
0.032345886983
0.035811232562
0.039590082077
0.043711370566
0.048208492118
0.053120307592
0.058492409742
0.064378711655
0.070843442443
0.077963657438
0.085832400139
0.094562691982
0.104292576411
0.115191509294
0.127468472201
0.141382293838
0.157254802363
0.175487599969
0.196583446406
0.221173438678
0.250051321626
0.284216229211
0.324924687940
0.373751395214
0.432655592693
0.504045586045
0.947342872620
0.000143110752
0.126296727831
0.128573226520
0.122465936055
0.110359978330
0.094805683503
0.078120200154
0.062110000679
0.047949971496
0.036208011287
0.026969788557
0.020005885998
0.014931481324
0.011328214890
0.008818778656
0.007099961366
0.005947044531
0.005202917416
0.004762034926
0.004555149999
0.004537299209
0.004679377031
0.004962654784
0.005375369357
0.005910631581
0.006565127771
0.007338287515
0.008231730209
0.009248887538
0.010394746029
0.011675678681
0.013099347914
0.014674669661
0.016411833382
0.018322376568
0.020419315565
0.022717337759
0.025233063408
0.027985389054
0.030995928539
0.034289572939
0.037895196091
0.041846540177
0.046183324982
0.050952635783
0.056210659293
0.062024855242
0.068476674214
0.075664961211
0.083710221275
0.092759969816
0.102995447986
0.114640055136
0.127969937407
0.143327273731
0.161136913799
0.181927134585
0.206355364658
0.235239724266
0.269597049071
0.310687563576
0.360065378821
0.419632427861
0.491691620020
0.928365767002
0.000244140625
0.089244108155
0.092182303222
0.088973179427
0.081240074990
0.070774413668
0.059237409935
0.047949971496
0.037796062982
0.029231610365
0.022366772381
0.017080564805
0.013132292341
0.010247877208
0.008173843977
0.006702473128
0.005676796392
0.004984590003
0.004548377391
0.004315605377
0.004250788284
0.004329930134
0.004536845898
0.004860828031
0.005295176564
0.005836253865
0.006482854193
0.007235768302
0.008097477706
0.009071943073
0.010164466999
0.011381619847
0.012731222433
0.014222382956
0.015865588584
0.017672854998
0.019657940157
0.021836631758
0.024227121373
0.026850483070
0.029731278332
0.032898316012
0.036385603383
0.040233533511
0.044490365709
0.049214070008
0.054474624338
0.060356874802
0.066964096888
0.074422429047
0.082886390808
0.092545747188
0.103634039721
0.116439171656
0.131316508033
0.148705023899
0.169147092311
0.193312523729
0.222027411175
0.256308145923
0.297400584623
0.346823735199
0.406416556644
0.478385846155
0.906494140625
0.000391066074
0.060470026784
0.063618813781
0.062426684709
0.057936127119
0.051345145310
0.043793146196
0.036208011287
0.029231610365
0.023218542829
0.018286454662
0.014390193909
0.011395596000
0.009137738880
0.007458321484
0.006224079772
0.005331718487
0.004705284307
0.004290581124
0.004049402925
0.003954821196
0.003987790250
0.004134874149
0.004386773895
0.004737370459
0.005183083993
0.005722427068
0.006355683592
0.007084677012
0.007912608553
0.008843955103
0.009884421118
0.011040942001
0.012321738846
0.013736426797
0.015296181723
0.017013972629
0.018904870122
0.020986445621
0.023279278734
0.025807596448
0.028600073588
0.031690831387
0.035120680165
0.038938663275
0.043203973185
0.047988327075
0.053378910257
0.059482020566
0.066427576564
0.074374688080
0.083518529182
0.094098800870
0.106410122098
0.120814739877
0.137757995474
0.157787013050
0.181573072462
0.209938066202
0.243885296176
0.284634622500
0.333661650772
0.392740327761
0.463988217014
0.881738722324
0.000596046448
0.039462290448
0.042503550119
0.042580521783
0.040320895192
0.036486790243
0.031827047434
0.026969788557
0.022366772381
0.018286454662
0.014841946692
0.012035996392
0.009807225750
0.008067551534
0.006726966306
0.005706538853
0.004942855128
0.004387506280
0.004004474176
0.003767166370
0.003655910980
0.003656119394
0.003757035046
0.003950902274
0.004232405138
0.004598272156
0.005046985575
0.005578562877
0.006194394841
0.006897132941
0.007690622892
0.008579883338
0.009571130255
0.010671849166
0.011890919063
0.013238793990
0.014727750487
0.016372213082
0.018189171336
0.020198707860
0.022424661105
0.024895452707
0.027645116440
0.030714574542
0.034153217981
0.038020859754
0.042390146751
0.047349534301
0.053006949632
0.059494297100
0.066972988740
0.075640718429
0.085739736093
0.097566918202
0.111485969165
0.127942119803
0.147479706116
0.170763003777
0.198600649850
0.231973894936
0.272068799870
0.320312350258
0.378412380616
0.448401296741
0.854111671448
0.000872671604
0.024998820512
0.027736364016
0.028506490344
0.027659502672
0.025655734029
0.022967474099
0.020005885998
0.017080564805
0.014390193909
0.012035996392
0.010047010795
0.008407364893
0.007079106281
0.006017934855
0.005182066321
0.004535960596
0.004050961321
0.003704503162
0.003478928504
0.003360416088
0.003338174486
0.003403882296
0.003551303985
0.003776015207
0.004075193908
0.004447454462
0.004892715676
0.005412100590
0.006007868941
0.006683384269
0.007443118081
0.008292694105
0.009238976533
0.010290207508
0.011456200556
0.012748600387
0.014181219189
0.015770465454
0.017535884490
0.019500834537
0.021693328143
0.024147075260
0.026902773129
0.030009697512
0.033527663112
0.037529434867
0.042103688656
0.047358640342
0.053426485385
0.060468817664
0.068683225493
0.078311294322
0.089648277729
0.103054728519
0.118970406425
0.137930793363
0.160586546122
0.187726195699
0.220302362448
0.259461706556
0.306578799860
0.363294133793
0.431556630603
0.823626577854
0.001235961914
0.015597453663
0.017934478519
0.018994306003
0.018954060302
0.018076808049
0.016648852658
0.014931481324
0.013132292341
0.011395596000
0.009807225750
0.008407364893
0.007205527421
0.006193721491
0.005356000528
0.004674303226
0.004131406184
0.003712052774
0.003403150011
0.003193610341
0.003074130280
0.003037010213
0.003076026455
0.003186336405
0.003364397925
0.003607893662
0.003915659599
0.004287622020
0.004724748732
0.005229020407
0.005803427273
0.006451995954
0.007179851235
0.007993318014
0.008900069347
0.009909330004
0.011032142778
0.012281711120
0.013673833528
0.015227448827
0.016965315876
0.018914856639
0.021109198502
0.023588458807
0.026401325522
0.029606998258
0.033277566787
0.037500920256
0.042384298193
0.048058614905
0.054683711987
0.062454718951
0.071609728865
0.082439023055
0.095296104879
0.110610825043
0.128904897530
0.150810113793
0.177089563151
0.208662162735
0.246630800849
0.292314421760
0.347284454884
0.413406146198
0.790298461914
0.001702368259
0.009840019367
0.011751100340
0.012844917366
0.013198410107
0.012952904870
0.012275524963
0.011328214890
0.010247877208
0.009137738880
0.008067551534
0.007079106281
0.006193721491
0.005419339242
0.004756047357
0.004199794622
0.003744611207
0.003383821397
0.003110681157
0.002918731178
0.002802020901
0.002755268470
0.002773976395
0.002854507780
0.002994127325
0.003191014713
0.003444260422
0.003753854616
0.004120678852
0.004546509023
0.005034036576
0.005586914237
0.006209832151
0.006908630093
0.007690454999
0.008563968480
0.009539616429
0.010629973250
0.011850175921
0.013218466453
0.014756865634
0.016492006755
0.018456162823
0.020688510310
0.023236679832
0.026158654239
0.029525087389
0.033422130702
0.037954870772
0.043251499710
0.049468360380
0.056796030946
0.065466636744
0.075762601856
0.088027076839
0.102676301704
0.120214183532
0.141249385739
0.166515242333
0.196892829708
0.233437558377
0.277409699807
0.330309353987
0.393916504304
0.754143774509
0.002289772034
0.006550984201
0.008054708455
0.009038447790
0.009526314339
0.009588845147
0.009320192512
0.008818778656
0.008173843977
0.007458321484
0.006726966306
0.006017934855
0.005356000528
0.004756047357
0.004226081508
0.003769505794
0.003386711060
0.003076160026
0.002835139498
0.002660306455
0.002548099931
0.002495054265
0.002498031654
0.002554386731
0.002662075953
0.002819725594
0.003026672145
0.003282987837
0.003589502292
0.003947829551
0.004360408309
0.004830562212
0.005362586101
0.005961867869
0.006635048267
0.007390230268
0.008237248319
0.009188009448
0.010256920752
0.011461421524
0.012822643041
0.014366221691
0.016123300067
0.018131755477
0.020437703157
0.023097331786
0.026179139657
0.029766652706
0.033961720386
0.038888501851
0.044698273189
0.051575206500
0.059743293245
0.069474607065
0.081099124632
0.095016346772
0.111708985995
0.131759011304
0.155866368714
0.184870729675
0.219776665469
0.261782710903
0.312314873140
0.373065265818
0.715180397034
0.003017485142
0.004854735562
0.005991150650
0.006795910312
0.007268693272
0.007441454007
0.007365541957
0.007099961366
0.006702473128
0.006224079772
0.005706538853
0.005182066321
0.004674303226
0.004199794622
0.003769505794
0.003390152551
0.003065289590
0.002796181236
0.002582499332
0.002422885571
0.002315402358
0.002257887407
0.002248224219
0.002284540922
0.002365351136
0.002489651085
0.002656986605
0.002867502352
0.003121983876
0.003421901608
0.003769464566
0.004167689975
0.004620499366
0.005132841145
0.005710851753
0.006362063998
0.007095671719
0.007922862271
0.008857231600
0.009915300426
0.011117150610
0.012487210053
0.014055216825
0.015857399179
0.017937916668
0.020350615893
0.023161164813
0.026449641245
0.030313664381
0.034872173004
0.040269970890
0.046683178512
0.054325750329
0.063457238675
0.074392008417
0.087510131366
0.103270216165
0.122224459135
0.145036236038
0.172500596786
0.205568078759
0.245372323779
0.293262072828
0.350838222366
0.673427641392
0.003906250000
0.004154444955
0.004969028716
0.005570636767
0.005950094027
0.006119855378
0.006107141278
0.005947044531
0.005676796392
0.005331718487
0.004942855128
0.004535960596
0.004131406184
0.003744611207
0.003386711060
0.003065289590
0.002785088367
0.002548655444
0.002356919523
0.002209684498
0.002106043393
0.002044714065
0.002024302598
0.002043503512
0.002101247997
0.002196812177
0.002329897105
0.002500691199
0.002709924579
0.002958923574
0.003249671719
0.003584888944
0.003968126267
0.004403889739
0.004897800458
0.005456797423
0.006089392632
0.006805990599
0.007619287131
0.008544760830
0.009601281319
0.010811857748
0.012204555480
0.013813616417
0.015680824848
0.017857169045
0.020404857966
0.023399762832
0.026934365427
0.031121308913
0.036097662545
0.042030028931
0.049120641498
0.057614620892
0.067808582136
0.080060809988
0.094803248530
0.112555583712
0.133941735979
0.159709126256
0.190751135066
0.228133243888
0.273123431666
0.327227497317
0.628906250000
0.004978239536
0.004074229214
0.004608123823
0.005005046352
0.005254583767
0.005360242207
0.005336096780
0.005202917416
0.004984590003
0.004705284307
0.004387506280
0.004050961321
0.003712052774
0.003383821397
0.003076160026
0.002796181236
0.002548655444
0.002336465782
0.002161045254
0.002022774430
0.001921327371
0.001855960922
0.001825748408
0.001829762960
0.001867218358
0.001937576405
0.002040630027
0.002176570796
0.002346048836
0.002550231085
0.002790870663
0.003070381567
0.003391934942
0.003759581705
0.004178406241
0.004654719461
0.005196301280
0.005812704329
0.006515627661
0.007319381750
0.008241462282
0.009303253337
0.010530887886
0.011956298361
0.013618496561
0.015565129099
0.017854362732
0.020557163840
0.023760047696
0.027568385958
0.032110375090
0.037541784649
0.044051622597
0.051868875206
0.061270502003
0.072590892057
0.086233017417
0.102681553653
0.122518277481
0.146440098976
0.175280142508
0.210032357741
0.251880220352
0.302230170812
0.581638395786
0.006257057190
0.004394547831
0.004679711154
0.004878844779
0.004983358795
0.004993172563
0.004915343500
0.004762034926
0.004548377391
0.004290581124
0.004004474176
0.003704503162
0.003403150011
0.003110681157
0.002835139498
0.002582499332
0.002356919523
0.002161045254
0.001996321880
0.001863295599
0.001761885072
0.001691615835
0.001651815300
0.001641770445
0.001660852971
0.001708618156
0.001784884174
0.001889798613
0.002023897206
0.002188168217
0.002384113087
0.002613822889
0.002880072518
0.003186435924
0.003537430237
0.003938696854
0.004397228970
0.004921650253
0.005522564764
0.006212990153
0.007008888646
0.007929818148
0.008999729067
0.010247937275
0.011710308627
0.013430697013
0.015462686094
0.017871693920
0.020737509848
0.024157344825
0.028249489625
0.033157690910
0.039056372310
0.046156847372
0.054714693656
0.065038482912
0.077500091877
0.092546852538
0.110715840919
0.132650650595
0.159121052371
0.191046005681
0.229520560435
0.275847269256
0.531647682190
0.007767736912
0.004997013040
0.005054646974
0.005063232719
0.005016681582
0.004913721480
0.004757599073
0.004555149999
0.004315605377
0.004049402925
0.003767166370
0.003478928504
0.003193610341
0.002918731178
0.002660306455
0.002422885571
0.002209684498
0.002022774430
0.001863295599
0.001731673355
0.001627821165
0.001551321530
0.001501580983
0.001477959079
0.001479873827
0.001506887511
0.001558777642
0.001635596446
0.001737732564
0.001865961499
0.002021508090
0.002206119133
0.002422148911
0.002672665254
0.002961582145
0.003293826853
0.003675542566
0.004114346692
0.004619651778
0.005203058380
0.005878838406
0.006664528940
0.007581659550
0.008656639724
0.009921838685
0.011416896364
0.013190311297
0.015301359152
0.017822405155
0.020841684607
0.024466638187
0.028827902985
0.034084076701
0.040427391246
0.048090453673
0.057354237352
0.068557535277
0.082108121131
0.098495902954
0.118308400052
0.142248926698
0.171157926841
0.206037972429
0.248083013109
0.478959143162
0.009536743164
0.005824040736
0.005664864046
0.005486518611
0.005284974686
0.005058564109
0.004808240968
0.004537299209
0.004250788284
0.003954821196
0.003655910980
0.003360416088
0.003074130280
0.002802020901
0.002548099931
0.002315402358
0.002106043393
0.001921327371
0.001761885072
0.001627821165
0.001518858666
0.001434472084
0.001374004864
0.001336769801
0.001322133308
0.001329585797
0.001358799574
0.001409687626
0.001482445602