# vtk DataFile Version 2.0
Mech 588 VTK File
ASCII
DATASET UNSTRUCTURED_GRID
POINTS 25 DOUBLE
-3.000000 3.000000 0.000000 
-3.000000 -3.000000 0.000000 
3.000000 -3.000000 0.000000 
3.000000 3.000000 0.000000 
3.000000 0.000000 0.000000 
0.000000 -3.000000 0.000000 
-3.000000 0.000000 0.000000 
0.000000 3.000000 0.000000 
0.000000 -0.000000 0.000000 
1.500000 3.000000 0.000000 
-3.000000 1.500000 0.000000 
3.000000 -1.500000 0.000000 
-1.500000 -3.000000 0.000000 
3.000000 1.500000 0.000000 
1.488940 1.488940 0.000000 
-1.500000 3.000000 0.000000 
-1.488940 1.488940 0.000000 
1.500000 -3.000000 0.000000 
1.488940 -1.488940 0.000000 
-3.000000 -1.500000 0.000000 
-1.488940 -1.488940 0.000000 
0.000000 1.510979 0.000000 
1.510979 0.000000 0.000000 
-1.510979 0.000000 0.000000 
0.000000 -1.510979 0.000000 
CELLS 32 128
3 15 0 10
3 19 1 12
3 24 18 8
3 20 19 12
3 18 24 17
3 16 21 15
3 15 10 16
3 20 23 19
3 22 4 13
3 19 23 6
3 15 21 7
3 17 11 18
3 13 9 14
3 13 3 9
3 10 6 23
3 22 18 11
3 17 2 11
3 22 13 14
3 21 14 9
3 7 21 9
3 4 22 11
3 5 17 24
3 10 23 16
3 5 24 12
3 8 14 21
3 8 21 16
3 8 22 14
3 8 18 22
3 23 8 16
3 23 20 8
3 24 20 12
3 24 8 20
CELL_TYPES 32
5
5
5
5
5
5
5
5
5
5
5
5
5
5
5
5
5
5
5
5
5
5
5
5
5
5
5
5
5
5
5
5
CELL_DATA 32
SCALARS temperature DOUBLE 1
LOOKUP_TABLE temperature
1.000000000000e+02
1.020000000000e+02
1.010000000000e+02
9.700000000000e+01
0.000000000000e+00
7.163951864698e-322
5.517189057448e-313
5.517189059128e-313
9.336781482075e-313
1.060997895537e-312
2.121995792843e-313
5.729388637335e-313
2.121995799364e-314
5.729388635952e-313
5.092789898712e-313
6.153787794639e-313
7.639184848265e-313
7.002586110383e-313
9.548981060875e-313
1.018557979816e-312
1.082217853560e-312
1.145877727329e-312
0.000000000000e+00
7.163951864698e-322
8.487983165442e-313
8.912382324722e-313
9.548981061962e-313
1.082217853541e-312
1.060997895715e-312
7.851384428745e-313
3.819592424923e-313
1.018557979708e-312
VECTORS Velocity DOUBLE
7.853981633974e+00 7.853981633974e+00 0.000000000000e+00
-7.853981633974e+00 7.853981633974e+00 0.000000000000e+00
-3.141507457375e+00 -1.559213920524e+00 0.000000000000e+00
-6.271602900909e+00 6.271602900909e+00 0.000000000000e+00
-6.283100110965e+00 -3.130010247319e+00 0.000000000000e+00
6.283100110965e+00 3.130010247319e+00 0.000000000000e+00
6.271602900909e+00 6.271602900909e+00 0.000000000000e+00
-3.130010247319e+00 6.283100110965e+00 0.000000000000e+00
1.570796326795e+00 -7.865478844030e+00 0.000000000000e+00
-1.570796326795e+00 7.865478844030e+00 0.000000000000e+00
7.865478844030e+00 1.570796326795e+00 0.000000000000e+00
-6.271602900909e+00 -6.271602900909e+00 0.000000000000e+00
6.271602900909e+00 -6.271602900909e+00 0.000000000000e+00
7.853981633974e+00 -7.853981633974e+00 0.000000000000e+00
1.570796326795e+00 7.865478844030e+00 0.000000000000e+00
-3.130010247319e+00 -6.283100110965e+00 0.000000000000e+00
-7.853981633974e+00 -7.853981633974e+00 0.000000000000e+00
3.130010247319e+00 -6.283100110965e+00 0.000000000000e+00
6.283100110965e+00 -3.130010247319e+00 0.000000000000e+00
7.865478844030e+00 -1.570796326795e+00 0.000000000000e+00
-1.570796326795e+00 -7.865478844030e+00 0.000000000000e+00
-7.865478844030e+00 -1.570796326795e+00 0.000000000000e+00
3.130010247319e+00 6.283100110965e+00 0.000000000000e+00
-7.865478844030e+00 1.570796326795e+00 0.000000000000e+00
3.141507457375e+00 -1.559213920524e+00 0.000000000000e+00
3.141507457375e+00 1.559213920524e+00 0.000000000000e+00
1.559213920524e+00 -3.141507457375e+00 0.000000000000e+00
-1.559213920524e+00 -3.141507457375e+00 0.000000000000e+00
1.559213920524e+00 3.141507457375e+00 0.000000000000e+00
-1.559213920524e+00 3.141507457375e+00 0.000000000000e+00
-6.283100110965e+00 3.130010247319e+00 0.000000000000e+00
-3.141507457375e+00 1.559213920524e+00 0.000000000000e+00
