# vtk DataFile Version 2.0
Mech 588 VTK File
ASCII
DATASET UNSTRUCTURED_GRID
POINTS 6 DOUBLE
3.250000 1.250000 0.000000 
3.000000 0.250000 0.000000 
2.000000 1.000000 0.000000 
4.500000 0.500000 0.000000 
1.500000 0.000000 0.000000 
2.500000 2.250000 0.000000 
CELLS 4 16
3 1 0 2
3 1 3 0
3 2 0 5
3 4 1 2
CELL_TYPES 4
5
5
5
5
CELL_DATA 4
SCALARS temperature DOUBLE 1
LOOKUP_TABLE temperature
3.295499309590e-17
7.523438286232e-29
9.237820048661e-16
1.167453535899e-11
VECTORS Velocity DOUBLE
2.617993877991e+00 -8.639379797372e+00 0.000000000000e+00
2.094395102393e+00 -1.125737367536e+01 0.000000000000e+00
4.712388980385e+00 -8.115781021774e+00 0.000000000000e+00
1.308996938996e+00 -6.806784082778e+00 0.000000000000e+00
