# vtk DataFile Version 2.0
Mech 588 VTK File
ASCII
DATASET UNSTRUCTURED_GRID
POINTS 4213 DOUBLE
-3.000000 3.000000 0.000000 
-3.000000 -3.000000 0.000000 
3.000000 -3.000000 0.000000 
3.000000 3.000000 0.000000 
3.000000 0.000000 0.000000 
0.000000 -3.000000 0.000000 
-3.000000 0.000000 0.000000 
0.000000 3.000000 0.000000 
3.000000 -1.500000 0.000000 
3.000000 1.500000 0.000000 
-1.500000 -3.000000 0.000000 
1.500000 -3.000000 0.000000 
-3.000000 1.500000 0.000000 
-3.000000 -1.500000 0.000000 
1.500000 3.000000 0.000000 
-1.500000 3.000000 0.000000 
3.000000 -2.250000 0.000000 
3.000000 -0.750000 0.000000 
3.000000 0.750000 0.000000 
3.000000 2.250000 0.000000 
-2.250000 -3.000000 0.000000 
-0.750000 -3.000000 0.000000 
0.750000 -3.000000 0.000000 
2.250000 -3.000000 0.000000 
-3.000000 2.250000 0.000000 
-3.000000 0.750000 0.000000 
-3.000000 -0.750000 0.000000 
-3.000000 -2.250000 0.000000 
2.250000 3.000000 0.000000 
0.750000 3.000000 0.000000 
-0.750000 3.000000 0.000000 
-2.250000 3.000000 0.000000 
3.000000 -2.625000 0.000000 
3.000000 -1.875000 0.000000 
3.000000 -1.125000 0.000000 
3.000000 -0.375000 0.000000 
3.000000 0.375000 0.000000 
3.000000 1.125000 0.000000 
3.000000 1.875000 0.000000 
3.000000 2.625000 0.000000 
-2.625000 -3.000000 0.000000 
-1.875000 -3.000000 0.000000 
-1.125000 -3.000000 0.000000 
-0.375000 -3.000000 0.000000 
0.375000 -3.000000 0.000000 
1.125000 -3.000000 0.000000 
1.875000 -3.000000 0.000000 
2.625000 -3.000000 0.000000 
-3.000000 2.625000 0.000000 
-3.000000 1.875000 0.000000 
-3.000000 1.125000 0.000000 
-3.000000 0.375000 0.000000 
-3.000000 -0.375000 0.000000 
-3.000000 -1.125000 0.000000 
-3.000000 -1.875000 0.000000 
-3.000000 -2.625000 0.000000 
2.625000 3.000000 0.000000 
1.875000 3.000000 0.000000 
1.125000 3.000000 0.000000 
0.375000 3.000000 0.000000 
-0.375000 3.000000 0.000000 
-1.125000 3.000000 0.000000 
-1.875000 3.000000 0.000000 
-2.625000 3.000000 0.000000 
3.000000 -2.812500 0.000000 
3.000000 -2.437500 0.000000 
3.000000 -2.062500 0.000000 
3.000000 -1.687500 0.000000 
3.000000 -1.312500 0.000000 
3.000000 -0.937500 0.000000 
3.000000 -0.562500 0.000000 
3.000000 -0.187500 0.000000 
3.000000 0.187500 0.000000 
3.000000 0.562500 0.000000 
3.000000 0.937500 0.000000 
3.000000 1.312500 0.000000 
3.000000 1.687500 0.000000 
3.000000 2.062500 0.000000 
3.000000 2.437500 0.000000 
3.000000 2.812500 0.000000 
-2.812500 -3.000000 0.000000 
-2.437500 -3.000000 0.000000 
-2.062500 -3.000000 0.000000 
-1.687500 -3.000000 0.000000 
-1.312500 -3.000000 0.000000 
-0.937500 -3.000000 0.000000 
-0.562500 -3.000000 0.000000 
-0.187500 -3.000000 0.000000 
0.187500 -3.000000 0.000000 
0.562500 -3.000000 0.000000 
0.937500 -3.000000 0.000000 
1.312500 -3.000000 0.000000 
1.687500 -3.000000 0.000000 
2.062500 -3.000000 0.000000 
2.437500 -3.000000 0.000000 
2.812500 -3.000000 0.000000 
-3.000000 2.812500 0.000000 
-3.000000 2.437500 0.000000 
-3.000000 2.062500 0.000000 
-3.000000 1.687500 0.000000 
-3.000000 1.312500 0.000000 
-3.000000 0.937500 0.000000 
-3.000000 0.562500 0.000000 
-3.000000 0.187500 0.000000 
-3.000000 -0.187500 0.000000 
-3.000000 -0.562500 0.000000 
-3.000000 -0.937500 0.000000 
-3.000000 -1.312500 0.000000 
-3.000000 -1.687500 0.000000 
-3.000000 -2.062500 0.000000 
-3.000000 -2.437500 0.000000 
-3.000000 -2.812500 0.000000 
2.812500 3.000000 0.000000 
2.437500 3.000000 0.000000 
2.062500 3.000000 0.000000 
1.687500 3.000000 0.000000 
1.312500 3.000000 0.000000 
0.937500 3.000000 0.000000 
0.562500 3.000000 0.000000 
0.187500 3.000000 0.000000 
-0.187500 3.000000 0.000000 
-0.562500 3.000000 0.000000 
-0.937500 3.000000 0.000000 
-1.312500 3.000000 0.000000 
-1.687500 3.000000 0.000000 
-2.062500 3.000000 0.000000 
-2.437500 3.000000 0.000000 
-2.812500 3.000000 0.000000 
0.009775 -0.025983 0.000000 
1.406250 -1.406250 0.000000 
-1.381175 -1.408396 0.000000 
1.410306 1.390789 0.000000 
-1.398679 1.400498 0.000000 
1.684241 -0.098488 0.000000 
0.102317 -1.664388 0.000000 
-1.673591 -0.099145 0.000000 
0.090383 1.654387 0.000000 
2.085707 -2.054119 0.000000 
-2.059686 -2.075201 0.000000 
2.066406 2.066406 0.000000 
-2.066406 2.066406 0.000000 
-0.835531 -2.101184 0.000000 
2.098362 0.850546 0.000000 
-0.841656 2.104496 0.000000 
-2.101345 0.843435 0.000000 
2.125405 -0.843451 0.000000 
0.846880 -2.127421 0.000000 
-2.127421 -0.846881 0.000000 
0.836094 2.129451 0.000000 
0.858132 0.538175 0.000000 
-0.539757 -0.858247 0.000000 
-0.862487 0.560189 0.000000 
0.644453 -0.825097 0.000000 
-0.633838 1.359076 0.000000 
2.321392 0.097585 0.000000 
-0.097585 -2.321392 0.000000 
-2.321392 0.097585 0.000000 
-0.093750 2.322842 0.000000 
0.023460 0.828549 0.000000 
-1.471342 -2.338059 0.000000 
-2.322736 1.461797 0.000000 
2.338059 1.471342 0.000000 
-1.471342 2.338059 0.000000 
1.474186 -2.359801 0.000000 
-2.359801 -1.474186 0.000000 
2.341301 -1.466896 0.000000 
1.466896 2.341301 0.000000 
-0.909050 -0.182774 0.000000 
0.646306 1.263649 0.000000 
1.465767 -0.719468 0.000000 
-1.460797 -0.735180 0.000000 
0.951676 -0.172470 0.000000 
0.728121 -1.445840 0.000000 
1.521815 0.546395 0.000000 
-0.527034 -1.543554 0.000000 
-1.518799 0.546299 0.000000 
2.464970 -2.465469 0.000000 
-2.465469 -2.464970 0.000000 
2.465483 2.464963 0.000000 
-2.464963 2.465483 0.000000 
2.487277 -0.468750 0.000000 
0.468750 -2.487277 0.000000 
-2.487277 -0.468750 0.000000 
0.468750 2.487277 0.000000 
0.044597 -1.053094 0.000000 
2.494056 0.558567 0.000000 
-0.558184 2.511169 0.000000 
-0.558567 -2.494056 0.000000 
-2.494056 0.558567 0.000000 
2.526534 -1.971352 0.000000 
1.968750 -2.532803 0.000000 
-1.938490 -2.531095 0.000000 
-2.532803 -1.968750 0.000000 
2.529913 1.974992 0.000000 
1.968750 2.532803 0.000000 
-2.532803 1.968750 0.000000 
-1.974992 2.529913 0.000000 
-1.031250 -2.538552 0.000000 
2.538552 1.031250 0.000000 
-1.031250 2.538552 0.000000 
-2.544273 1.035975 0.000000 
-0.356161 1.885916 0.000000 
2.546793 -1.027582 0.000000 
1.031250 -2.547563 0.000000 
-2.547563 -1.031250 0.000000 
1.030871 2.548069 0.000000 
1.645296 -1.869285 0.000000 
-1.862853 -1.635817 0.000000 
1.622932 1.874349 0.000000 
-1.874391 1.615382 0.000000 
1.884167 -1.276355 0.000000 
-1.281471 -1.882103 0.000000 
1.882103 1.281471 0.000000 
-1.267797 1.877971 0.000000 
2.027878 -0.387500 0.000000 
0.385189 2.030788 0.000000 
0.387500 -2.027878 0.000000 
-2.027878 -0.387500 0.000000 
-1.034377 -1.038270 0.000000 
-1.038396 1.034298 0.000000 
1.957182 0.395808 0.000000 
-0.396717 -1.965099 0.000000 
-1.965788 0.396980 0.000000 
0.980165 1.646782 0.000000 
1.190220 0.939522 0.000000 
1.053856 -1.039854 0.000000 
-0.099236 -0.531177 0.000000 
-1.659425 0.987287 0.000000 
-0.334379 0.428042 0.000000 
1.157427 -1.791128 0.000000 
-1.791128 -1.157427 0.000000 
0.516242 0.136712 0.000000 
-1.241643 0.158113 0.000000 
-0.148749 1.284726 0.000000 
-0.471349 0.894050 0.000000 
1.272722 0.144797 0.000000 
-0.987992 -1.550860 0.000000 
2.641952 -0.093750 0.000000 
0.093750 -2.641952 0.000000 
-2.641952 -0.093750 0.000000 
0.093750 2.641952 0.000000 
0.342695 -0.352904 0.000000 
-0.910120 1.675689 0.000000 
1.235100 2.025834 0.000000 
1.991170 -1.667759 0.000000 
-2.034744 1.230716 0.000000 
-1.668745 -1.994416 0.000000 
1.994541 1.668841 0.000000 
-1.669696 1.992324 0.000000 
0.503338 0.832948 0.000000 
0.482692 1.619994 0.000000 
1.737088 0.903511 0.000000 
0.256141 1.291562 0.000000 
-1.579927 -2.644945 0.000000 
-2.657152 1.595138 0.000000 
2.644487 1.579559 0.000000 
-1.579561 2.644485 0.000000 
-0.442825 -0.173134 0.000000 
1.593750 -2.665107 0.000000 
-2.665107 -1.593750 0.000000 
2.665795 -1.589310 0.000000 
1.593750 2.665107 0.000000 
1.044702 -0.602573 0.000000 
-1.321990 -0.337534 0.000000 
-0.245562 -2.653126 0.000000 
-2.653126 0.245562 0.000000 
2.653127 0.245563 0.000000 
-0.251267 2.671330 0.000000 
0.338758 -1.346734 0.000000 
1.354564 -0.347926 0.000000 
-1.013764 -0.620417 0.000000 
2.681778 -2.681778 0.000000 
-2.681778 -2.681778 0.000000 
2.681778 2.681778 0.000000 
-2.681778 2.681778 0.000000 
-0.178195 -1.379124 0.000000 
0.158593 0.402432 0.000000 
0.733024 -2.675812 0.000000 
-2.675812 -0.733024 0.000000 
2.675812 -0.733024 0.000000 
0.733024 2.675812 0.000000 
-0.731548 0.134857 0.000000 
1.756811 -0.907145 0.000000 
-2.251291 1.786836 0.000000 
-1.812217 -0.672055 0.000000 
0.665699 -1.807201 0.000000 
1.784917 -2.255223 0.000000 
-2.254966 -1.783733 0.000000 
1.788569 2.251653 0.000000 
1.189280 -2.135334 0.000000 
-2.135334 -1.189280 0.000000 
-1.159302 -2.224416 0.000000 
2.229938 1.150926 0.000000 
-1.150926 2.229938 0.000000 
2.258965 -2.692057 0.000000 
-2.692057 -2.258965 0.000000 
2.692021 2.258962 0.000000 
-2.258962 2.692021 0.000000 
2.686135 -2.242710 0.000000 
-2.242710 -2.686135 0.000000 
2.242710 2.686135 0.000000 
-2.686135 2.242710 0.000000 
2.233140 -1.164188 0.000000 
-0.080938 -1.986596 0.000000 
-1.979509 0.051305 0.000000 
1.979509 0.051305 0.000000 
0.035938 2.012908 0.000000 
-1.303907 -2.689677 0.000000 
-2.699698 1.284906 0.000000 
2.689677 1.303907 0.000000 
-1.303907 2.689677 0.000000 
-0.403074 2.214278 0.000000 
1.057472 1.293309 0.000000 
2.695972 -1.306582 0.000000 
1.293280 2.698312 0.000000 
1.287027 -2.705560 0.000000 
-2.705559 -1.287027 0.000000 
1.669070 -0.443794 0.000000 
2.701702 0.779757 0.000000 
-0.779757 2.701702 0.000000 
-0.779757 -2.701702 0.000000 
-2.701702 0.779757 0.000000 
2.294414 -0.219845 0.000000 
0.219845 2.294414 0.000000 
0.219845 -2.294414 0.000000 
-2.294414 -0.219845 0.000000 
2.288435 -1.781701 0.000000 
0.230338 -0.738674 0.000000 
-1.782194 -2.290365 0.000000 
2.288667 1.777730 0.000000 
-1.777730 2.288667 0.000000 
-0.652226 -0.502195 0.000000 
-1.340306 0.834761 0.000000 
-0.696970 -1.191058 0.000000 
1.670493 0.247303 0.000000 
-1.663942 0.240083 0.000000 
-0.686697 -1.819346 0.000000 
-1.817083 0.689436 0.000000 
1.464273 -1.073214 0.000000 
1.080854 -1.457701 0.000000 
-1.463914 -1.076076 0.000000 
[...]
CELL_DATA 8168
SCALARS temperature DOUBLE 1
LOOKUP_TABLE temperature
3.433544384324e-18
5.958476994314e-07
2.414439861638e-25
2.196697751890e-23
4.886474644666e-07
2.864238832763e-34
5.810047398415e-40
7.355019465255e-15
9.115936065384e-21
1.610521623332e-22
1.989095638246e-01
1.287683073604e-34
3.146230418591e-18
1.028256543363e-12
3.687094334932e-27
5.114817182982e-27
1.351889860856e-08
6.532759865968e-26
2.977268391957e-44
1.321170069130e-25
3.222400536934e-36
6.038550261931e-37
5.063844364647e-13
4.435725953689e-09
5.755062488077e-14
3.814094477924e-50
7.122877771695e-11
1.702583576894e-12
7.047513887498e-20
3.247532614982e-22
1.703420442332e-23
3.856664145653e-04
2.708704193269e-03
2.886070502077e-35
1.719225695459e-29
2.421352835644e-22
1.202121820590e-22
8.933504808838e-21
1.851467364448e-31
2.230800986787e-42
1.043829327105e-43
3.341153142680e-03
7.342536685368e-17
1.483356808570e-35
5.178285001963e-16
1.709152220519e-06
1.735774852383e-08
1.782277257087e-10
4.690188775864e-20
4.521168761050e-24
2.104560413454e-35
5.489386828995e-23
2.232076610683e-37
9.185423281779e-53
1.828294726906e-21
3.271004038142e-19
9.922651267686e-11
3.787975254093e-35
5.184684270374e-20
2.129430272230e-10
3.501323915066e-13
1.052825387033e-24
3.064672805275e-52
8.423627570369e-44
2.316464733641e-10
1.015055993491e-19
3.804629465170e-37
4.908167844182e-45
1.748186322410e-39
1.126623627213e-38
2.276817850310e-32
1.970757156299e-11
3.755078886519e-07
2.284846333518e-15
2.305029658364e-20
1.440380293725e-12
2.003662318078e-09
5.559591579016e-27
5.303394494837e-41
8.669808369251e-45
6.042445170528e-41
1.432117626453e-32
9.822714931419e-25
1.231108896286e-19
8.698742177334e-30
1.923539481905e-04
7.902012388650e-16
3.571204462389e-43
1.208805873346e-16
2.232859341062e-07
7.287477768644e-21
1.031398681925e-31
2.509184769418e-39
2.316786300991e-49
1.949507535240e-27
2.501516055008e-19
2.349887197829e-20
4.690188775864e-20
6.775906007745e-21
1.144049476215e-28
1.176455998641e-19
4.095671245750e-12
1.066631191969e-09
5.247815472092e-17
1.062850949255e-22
3.605924412314e-18
3.309733298444e-48
1.941198556685e-04
1.033773322722e-46
1.530890665654e-48
1.999601012546e-18
1.301631878138e-22
6.265259019817e-10
2.589245192124e-16
1.540882752158e-29
2.644122058164e-13
9.182047963247e-20
8.071806612045e-38
5.437409695379e-10
1.858794669966e-11
1.388174678976e-20
4.728204410179e-04
8.551386637321e-12
2.123833228536e-22
1.590721743977e-24
1.557983303093e-24
1.783246413978e-04
9.148498374669e-23
5.463809983248e-27
3.022535471041e-18
1.236717734951e-33
5.955179453521e-36
1.949365675213e-09
6.883748996898e-20
3.920438795537e-28
8.601431041251e-13
1.196100121122e-24
1.116759971368e-08
1.181003033282e-34
1.106017179305e-32
1.220132976686e-11
4.366015701319e-10
1.236416795698e-10
8.256922034551e-11
9.222594443426e-38
6.192503060458e-37
1.926983081716e-28
1.072840475928e-15
6.619334930516e-11
4.536325455284e-20
2.216003696960e-14
4.762593174311e-10
9.484700442966e-40
4.269853023504e-09
1.812222168780e-34
2.143499814288e-19
2.778181204273e-13
6.125180450391e-09
2.333062337874e-20
6.549325657953e-20
7.076319994515e-18
7.633536076825e-19
4.818009326605e-26
1.196591369261e-34
5.109424624683e-35
8.879237257091e-08
8.730273199507e-03
6.488962628297e-18
4.106012152586e-16
2.320855831283e-06
2.139641617447e-14
5.428424580539e-33
1.284553978336e-01
4.261294500556e-07
1.108174918852e-06
1.021892637660e-15
4.210598190356e-02
5.145758681103e-03
1.316208891460e-06
1.006180958655e-24
1.537888810614e-25
3.850589669878e-35
6.271001149440e-31
7.927675853103e-24
2.802083397786e-10
7.746501062623e-10
2.847590330467e-01
2.170938808248e-02
1.259295584225e-32
1.399580616672e-12
2.878687405311e-10
3.573744144895e-20
5.411621142617e-05
7.382187111882e-07
1.768111759456e-22
4.675515372342e-09
1.792958499633e-39
1.430319560234e-37
3.776934116815e-32
1.871565250525e-14
2.162353475104e-47
7.927675853102e-24
2.733192306951e-10
3.997321462522e-07
1.655320229483e-07
8.171276414605e-01
2.637097921409e-02
1.758155559065e-06
3.317447183274e-28
2.373929228289e-07
1.386730343482e-10
2.823024059299e-03
9.560590867398e-12
5.882719017841e-10
2.267766010865e-26
1.618975810857e-21
1.440290917252e-03
9.604530901849e-02
2.036331258349e-10
4.923327863990e-21
8.171105898192e-02
1.747531715525e-08
4.435388360368e-40
1.289630395658e-42
2.385167608858e-42
2.527135391913e-47
2.455279471889e-24
2.440419855021e-17
2.013493134302e-13
2.139838689693e-14
1.062850949255e-22
6.837098862841e-23
2.022096388486e-23
1.343916506934e-16
5.448933388350e-11
4.491375890634e-19
4.453981442605e-09
1.295918034616e-03
4.588674355060e-18
1.073566130631e-06
1.752407184598e-07
8.008444713677e-22
1.525183423018e-02
3.374545828763e-08
7.094304469772e-28
4.675401947746e-27
7.342536685367e-17
1.172827662186e-05
1.105576991020e-16
1.028284243595e-33
2.150381106127e-25
1.371477480787e-38
5.647998826640e-35
1.508652410374e-27
3.224063006539e-31
1.442856344659e-34
2.754713810565e-17
2.302879087864e-15
1.920717496664e-21
3.038376288179e-16
8.387161257721e-20
3.911363477220e-08
3.780441197372e-20
6.091846705685e-13
4.047201188797e-33
3.753784902829e-24
1.546189740599e-09
5.346503388876e-11
2.538349427051e-04
4.176499143944e-11
4.203654695548e-08
4.668490687865e-11
1.351086784005e-08
5.696129158142e-03
3.058037032071e-26
1.768285076389e-19
1.543703417765e-36
1.875085680786e-35
5.033402195312e-09
1.006180958655e-24
1.991141832860e-04
5.682390621270e-09
5.783624937726e-34
2.035586054965e-21
2.784247283912e-26
2.282143192422e-28
1.055672474618e-14
5.604639830322e-08
4.621177907360e-01
3.133173045321e-20
1.222281092970e-10
2.147285148363e-26
7.870976990517e-16
8.706554996574e-21
3.632969225364e-11
1.425678579394e-09
8.727166034900e-07
2.834673812147e-11
5.620511989432e-13
1.678867114461e-18
1.838197153799e-05
2.332036644822e-06
1.362882829000e-17
1.694893307348e-20
6.544930103341e-12
2.064837141354e-16
2.310367388994e-15
1.039641771065e-15
9.322871149942e-04
6.407818382350e-06
3.211380334617e-20
4.626375085014e-14
4.097595887790e-31
1.429365318896e-16
1.535240975355e-08
7.902012361634e-16
1.635508567662e-03
1.396116916906e-02
1.860627951970e-08
1.782722366284e-06
5.435073334151e-09
1.125089443919e-07
1.310072863195e-03
5.994375275261e-06
2.713222949762e-06
3.820749309441e-07
2.526432822436e-02
1.826372937569e-06
5.456455022344e-23
3.564827020389e-23
8.246463543316e-07
7.456337836675e-21
1.421514295188e-01
4.560017796370e-06
1.200204055385e-03
1.271764291077e-06
3.330405202268e-01
3.043860907924e-01
7.958448156767e-01
3.048399508831e-01
1.372631087880e-09
1.457716628730e-08
1.830645328816e-11
2.155854612091e-12
8.388416963293e-19
3.174896591248e-22
9.474665139149e-32
1.641194261748e-34
7.991675316599e-24
8.178757650213e-15
1.063498402308e-07
3.440215790544e-09
5.735820363848e-03
3.608614057240e-04
1.162224374229e-04
5.160112171531e-04
4.687340914438e-08
2.439730721406e-06
1.265375692551e-27
2.051513939425e-27
4.899728384807e-12
2.110995172233e-15
2.956996947278e-30
4.767014081486e-20
3.639943390561e-02
7.431016406420e-10
3.784276356732e-09
2.515045503563e-08
5.582238815582e-01
4.510503489640e-03
9.422875863386e-06
2.085115819283e-06
4.228678137354e-05
2.471169473719e-06
2.760670715517e-01
6.859710617551e-01
1.714942682613e-38
1.466887378056e-39
5.766433695053e-19
1.299926128256e-13
3.564044971369e-20
2.521584838019e-20
2.591289710132e-13
1.188452249594e-14
1.085529586364e-04
1.915852533814e-01
2.235762606702e-42
1.103543647471e-29
1.215765929484e-29
4.283397291903e-34
2.934459585583e-30
3.596561261212e-31
5.227773684268e-12
2.648845639622e-13
1.066637292162e-03
9.201878236188e-04
1.449273344522e-11
4.271779327000e-03
9.275336711225e-30
4.060971460421e-24
1.370929735159e-21
2.503927863814e-13
1.425715571177e-12
1.071888854846e-15
2.193308215148e-06
2.788987824985e-04
2.734831719117e-14
1.243079745490e-19
8.707382643631e-08
6.416010807706e-12
2.175993231174e-09
7.355315382623e-07
1.024749163039e-52
1.305916666692e-47
1.941726728346e-43
1.636828409235e-48
2.422014457785e-26
1.931024889452e-22
2.487678916820e-23
5.547749720777e-26
1.688668529874e-15
2.126705516907e-14
2.403482965331e-02
1.406129377000e-01
6.398975475522e-29
4.003454596810e-29
3.186300130760e-23
1.857258974578e-20
7.837367354483e-25
2.064839350145e-16
2.776485866285e-05
1.083053145652e-06
4.397848071746e-05
4.966945923608e-06
3.074287013795e-18
1.070433103748e-13
2.305084661890e-12
4.628865080294e-17
1.124020302906e-17
6.677166867719e-20
5.576521322094e-16
9.555290394398e-18
6.828678499596e-37
5.674311367225e-39
4.654264488305e-30
7.179654852529e-33
3.394274417061e-14
2.688602729450e-11
2.842589261915e-15
3.453025440333e-28
3.779327858847e-20
7.839857818275e-27
3.893617713192e-25
2.059185857054e-21
7.355028880421e-15
4.922491480648e-07
2.192615114279e-03
3.361689808619e-06
8.191382180057e-35
1.138635872384e-44
1.343849746707e-41
1.452591653363e-30
8.820502425925e-21
1.620022374838e-18
3.460918997772e-20
3.606580447496e-16
3.971838472102e-46
2.244667487977e-41
1.862486695025e-44
1.607326439330e-45
3.605853164446e-19
9.294646759142e-19
4.343190416304e-23
2.273370808954e-22
1.824766979025e-25
5.872340222809e-19
1.186391135055e-14
1.434133000685e-20
1.063909715573e-18
3.492232973635e-15
7.451172694810e-17
6.192917087845e-17
1.047480150335e-03
9.587387764700e-03
1.945318476850e-19
1.514324675888e-29
1.291173213090e-19
2.222826434124e-13
1.548906335215e-11
2.653171258370e-13
5.004474306896e-15
1.143118822240e-11
1.063340395470e-06
1.582583119403e-03
1.065799709377e-04
4.140886404101e-05
1.964328723997e-29
3.310210568562e-24
2.677875482221e-09
8.181333597369e-12
1.270135943054e-35
4.233569045667e-34
2.505582009813e-28
1.131536859323e-33
5.046462445498e-10
7.143853017675e-21
2.503856735821e-13
1.996160995978e-20
2.567005162748e-09
4.525454050160e-05
9.504767815806e-36
3.999430987280e-26
7.633553013125e-19
1.039172727249e-07
3.298447486856e-20
5.552070836023e-09
9.827952192938e-05
1.385951743675e-03
2.671697246622e-25
3.583834260101e-20
7.267966801291e-17
1.610654868465e-12
5.130484810110e-23
1.647095583938e-26
4.996589995253e-02
1.015421687585e-12
1.186216159997e-27
5.999958917327e-32
8.340985885866e-18
2.995170585100e-13
4.120631699918e-09
1.191824884809e-13
2.828093485327e-14
4.940717024084e-09
6.297739503186e-04
5.308033350795e-06
6.247333826039e-10
4.559295127853e-12
1.122999809594e-06
6.901724419784e-11
8.865457617563e-12
1.786332875926e-06
2.021472769290e-23
5.315090891919e-11
2.201207468261e-08
7.154289183309e-06
3.951173151498e-13
2.156291999673e-19
2.883725610424e-22
7.490910304377e-24
2.128206028231e-17
3.231683794767e-11
5.223183629744e-02
4.712961334612e-02
1.023460877452e-04
1.118391220013e-04
9.645015623511e-05
2.010965563420e-04
1.023320812209e-02
1.854968157648e-02
5.662234747503e-10
4.141099172230e-08
4.655465557100e-20
6.096252388758e-33
3.152835178230e-08
6.816530317682e-13
1.604021187540e-31
9.989536515909e-29
5.073043843555e-35
5.435350015183e-40
3.091293564161e-21
4.274684519514e-15
3.004846575636e-16
3.246075180722e-19
6.979434647810e-07
7.964502079219e-11
1.557590803352e-20
1.802440190191e-24
3.235054287982e-27
2.364119884922e-24
1.517839085987e-09
1.437495793066e-14
1.386369415794e-09
3.232819133557e-11
1.479417187661e-18
1.926901607713e-15
7.310628348235e-08
8.624517222288e-11
6.570717817761e-22
4.807068280822e-21
8.076996813403e-09
2.631167900896e-06
3.293086097878e-31
1.529001531425e-28
3.256256941781e-22
6.028262847222e-19
3.710459362458e-07
1.725987762364e-10
2.022886626790e-06
1.980121562784e-09
2.386987240721e-06
1.011896409300e-07
3.514882270056e-19
1.836238499741e-28
1.555131901947e-05
2.481638947091e-06
4.083908353851e-31
6.653523090817e-35
7.073489497950e-16
2.302982814651e-26
1.890195756996e-14
2.287446317007e-12
1.261807489404e-09
2.443496894441e-11
1.285205392052e-08
5.898420335280e-06
2.629453677816e-02
2.482054001325e-05
2.780158082462e-02
4.259297394410e-04
1.421789446577e-10
2.047002586753e-21
2.228836029190e-29
2.121258833325e-29
1.363341382838e-16
1.236611307198e-16
4.280658671622e-17
2.963537315888e-13
3.344099864566e-07
1.310604372043e-08
2.422749197988e-07
8.303380073124e-03
1.563082793090e-01
3.142889020097e-03
6.724015522038e-21
5.270868454723e-14
1.516051674855e-13
2.393563609774e-15
2.421684174245e-09
1.681234244285e-04
1.205929047317e-16
1.747643578363e-15
4.733871052100e-35
3.096865321679e-25
4.176409456796e-19
5.471378267348e-13
4.176409456796e-19
3.433550200663e-18
3.961430358079e-07
4.799458453214e-07
5.872142152346e-03
3.328927793295e-03
1.350782585202e-40
2.616725219108e-09
4.974283092384e-18
9.122867538997e-10
1.917811444673e-16
3.843443429547e-15
5.002435508435e-09
7.329959128766e-19
4.054688888424e-31
2.000728313855e-42
4.079545194165e-15
4.211516465081e-08
8.163814059339e-39
2.869341686662e-33
2.105742391022e-34
9.808043086687e-33
2.414517079420e-37
1.375294009750e-35
1.348693974011e-34
2.532499956431e-37
1.606635523739e-14
5.698110638481e-18
9.056964054421e-15
1.466073209486e-14
7.514226224439e-37
6.176379924660e-32
5.724884359455e-17
1.945119134145e-14
1.314185502248e-10
1.100811981902e-06
2.946719667011e-17
3.686387756765e-14
3.224512958489e-02
8.030592280667e-03
3.879236703545e-26
5.166615282092e-25
4.685218791357e-31
3.663213975071e-23
1.988211330592e-30
4.454131884310e-23
1.915619150255e-10
2.743939705653e-09
2.505546615542e-29
4.643548711655e-33
8.779406712244e-23
8.283166240606e-29
3.808818180846e-13
1.815629451277e-11
3.560981767398e-21
9.344818813497e-21
1.217490796690e-05
7.731930970571e-02
1.149561323863e-22
3.814475075863e-21
1.502890245566e-14
3.677662468292e-18
2.097508424335e-43
1.812513051710e-42
4.273123664164e-38
1.083696596378e-35
2.748811130009e-22
1.118258975514e-14
5.586164132963e-21
4.232929626317e-20
3.706740785607e-50
2.124825688453e-44
7.177322613445e-50
4.187873349122e-43
1.476551624625e-24
2.389810326313e-17
2.926610077119e-26
1.134769773875e-17
2.764273068794e-31
2.152361767771e-30
1.427180348505e-26
1.582448264921e-23
1.693929343037e-05
2.334317455523e-04
2.239068878985e-17
8.769206495700e-27
1.403682500017e-04
8.186541381008e-06
4.176149716046e-21
1.552508097332e-21
6.297335825031e-23
1.010971665696e-24
3.344903928726e-13
2.354466422303e-15
1.476680260008e-06
3.918420677314e-03
4.567289851276e-06
2.658616837951e-08
1.303624674130e-12
7.020066120791e-15
7.147155633577e-05
1.085476110474e-06
2.127937983544e-26
2.420775648731e-33
5.669930088963e-14
1.685862144288e-11
9.874418131109e-09
4.364148677133e-07
4.797511599751e-10
6.273840199625e-11
5.501559708903e-25
9.164370086911e-29
2.588286801916e-25
1.596627216881e-24
5.547111547986e-05
1.297720122074e-04
1.266043367925e-13
1.793446942214e-09
7.617741135569e-24
3.684541126621e-17
5.065348631988e-19
5.716907305573e-20
6.025439756975e-17
1.031565801290e-17
1.976864250257e-04
6.187572690487e-04
1.462807829706e-03
5.661130991074e-04
6.328507058095e-16
2.921849011709e-11
1.703939510784e-11
4.127856304955e-05
8.839255923682e-21
6.933844998922e-24
3.764179166525e-02
2.694046359957e-01
1.859688277851e-04
1.472193661083e-04
1.883127427174e-12
1.342155556398e-10
5.054645534139e-20
4.131146047460e-29
3.965824911055e-13
6.927467917468e-14
3.281411115743e-04
2.470950680790e-04
2.515538894843e-05
6.985130005667e-06
6.250272291249e-02
4.236551550774e-02
3.023442248539e-05
1.715325301838e-03
4.561983532798e-08
6.277031963486e-09
7.463504521139e-13
5.126436022963e-20
2.435352113425e-13
1.163409373612e-09
5.259283031956e-40
2.065503393254e-30
5.474242955688e-27
9.803794793521e-36
6.734828375010e-30
2.022769422734e-31
4.099929693199e-23
4.029255230351e-21
1.108184080688e-20
2.764019054870e-20
8.275051738187e-17
3.694765047893e-18
3.011951415999e-08
1.757398389274e-10
4.803550931554e-07
9.096248397972e-12
3.347389895279e-03
7.075058381668e-04
2.846479061113e-06
4.790458991508e-05
4.788207461923e-02
1.859373828543e-01
4.600515487886e-05
1.780004554785e-08
4.322017169020e-01
8.009460528707e-01
4.491388809634e-19
6.855691711706e-13
3.937650007142e-09
1.023497797649e-04
1.466519412567e-34
1.101508468075e-26
8.008375115158e-22
8.426455970058e-16
6.864898666017e-03
4.091281167399e-01
7.574450941791e-08
7.347496371994e-09
2.086918024185e-39
9.901564439261e-38
7.751262237418e-17
1.033302993783e-18
7.593923618465e-22
4.343190416304e-23
1.354154606255e-15
8.991486599690e-14
4.117950289614e-01
3.844097170127e-01
3.335527095393e-39
9.871100139068e-38
9.363978920716e-12
7.032743748576e-16
1.295843094966e-45
9.908112443250e-45
4.052954550916e-40
1.604453031154e-38
5.786440041754e-03
1.590781536674e-02
8.425444516980e-14
4.950543962208e-14
4.891437545397e-05
6.044500488301e-02
4.569101794801e-10
6.463497758815e-17
2.085360696817e-06
1.846614534583e-06
7.602558376637e-18
5.122958507618e-22
1.228209636384e-01
3.876061475232e-02
4.151416330142e-17
2.243909013679e-15
5.072689369013e-10
1.392840868428e-11
3.042780791065e-13
1.424450359825e-09
8.890271446406e-03
1.327253441282e-04
1.911291492990e-04
2.290303246078e-05
2.503575974860e-07
1.322197451245e-08
2.143673013756e-05
4.999703292151e-04
1.486933345903e-10
3.335623788525e-16
1.294726685012e-21
2.133683591605e-23
1.701449747883e-07
2.296874019958e-06
1.773418926587e-27
3.495054060250e-32
8.613948847676e-17
1.523910789394e-21
1.678920418177e-15
8.228308178081e-12
3.740653817474e-10
2.014535235928e-12
2.471628767513e-31
8.469549824991e-36
5.668648995776e-06
3.749367585649e-09
5.825836408249e-13
2.017820055608e-11
1.023034770889e-15
1.751597127677e-13
3.503900601374e-14
5.438711404664e-18
4.211853932680e-16
4.425220121711e-18
1.121378827423e-12
1.166775252617e-13
2.921251799165e-35
1.594733636287e-31
9.320657851061e-01
1.825137544808e-01
5.013779869142e-25
1.450483599279e-23
1.413401302591e-01
3.993683414518e-01
7.505403538306e-14
7.118306369429e-12
6.917332551831e-10
1.947828478947e-06
1.681550900099e-20
5.047463977468e-17
8.228036285431e-22
6.593415187189e-23
8.571493436058e-08
1.812781872444e-03
4.498958488279e-18
8.164399228383e-14
2.547560076405e-32
1.815607724860e-35
2.725507559921e-33
1.799882852557e-34
1.323537359583e-14
1.028256543363e-12
3.355459704394e-22
6.287671361211e-23
2.848168117504e-14
2.124004977811e-16
1.539161923484e-04
5.208907112469e-03
5.630345617419e-02
2.212368820179e-04
1.584968114660e-16
7.255435310159e-16
1.425443497758e-24
1.490660612161e-21
4.272387854910e-02
6.693575199609e-02
2.277255700603e-01
1.488483897000e-01
4.187301071762e-22
6.825118623113e-21
1.403901662100e-07
6.006075771508e-08
7.606406789138e-27
7.641980399899e-32
2.041126196618e-17
4.753321430502e-21
1.613069957613e-04
1.410459258309e-07
2.917946348965e-08
2.798041589456e-05
4.741252877493e-04
5.991426446101e-05
3.458091320495e-06
8.402057394657e-13
6.861396304070e-27
2.346052918298e-26
8.420514193859e-16
4.207503581896e-16
3.539111932147e-14
1.360467180047e-15
1.675324465708e-05
3.271892018056e-10
2.809559434754e-06
2.761710439291e-07
1.300395448175e-16
1.494714964326e-13
4.693887159363e-19
3.607314080814e-19
1.135559047826e-06
2.470018573844e-09
5.304284330717e-01
6.550608937294e-02
1.925522519983e-01
1.750875961154e-01
1.992538504651e-14
6.927468922012e-14
1.040168819789e-27
2.897644781284e-22
2.284933806335e-13
7.792814263197e-11
3.265771736985e-34
5.777304092405e-32
7.626891130716e-33
7.975631819536e-27
5.793472206034e-01
3.574696351557e-01
3.017528324781e-33
4.257488196048e-38
9.461138075109e-21
4.540127800106e-15
3.988259138589e-19
3.173318061850e-11
1.051604655181e-10
1.139959682622e-12
4.389478477122e-27
4.068558281273e-27
3.809935150981e-14
1.293249489491e-11
2.055534887832e-33
4.044353007751e-35
1.644394818420e-25
1.329871491773e-27
4.761452979010e-28
8.567615992266e-36
3.469827260066e-19
1.510118186529e-25
1.289911453825e-18
2.571872954560e-23
5.549808699152e-10
2.980942488980e-08
1.920390918880e-34
2.776271699736e-31
7.305724824960e-01
2.169396684515e-01
1.025193469699e-04
1.224893198066e-01
1.164748819856e-03
1.028253424499e-09
2.522761917207e-02
2.558589958515e-08
1.827435978127e-15
4.742223447312e-14
1.349333309953e-12
3.431002391551e-12
2.047405885734e-22
4.317652942355e-21
5.674076324901e-11
1.027359760694e-10
8.946832792663e-28