# vtk DataFile Version 2.0
Mech 588 VTK File
ASCII
DATASET UNSTRUCTURED_GRID
POINTS 280 DOUBLE
-3.000000 3.000000 0.000000 
-3.000000 -3.000000 0.000000 
3.000000 -3.000000 0.000000 
3.000000 3.000000 0.000000 
3.000000 0.000000 0.000000 
0.000000 -3.000000 0.000000 
-3.000000 0.000000 0.000000 
0.000000 3.000000 0.000000 
3.000000 -1.500000 0.000000 
3.000000 1.500000 0.000000 
-1.500000 -3.000000 0.000000 
1.500000 -3.000000 0.000000 
-3.000000 1.500000 0.000000 
-3.000000 -1.500000 0.000000 
1.500000 3.000000 0.000000 
-1.500000 3.000000 0.000000 
3.000000 -2.250000 0.000000 
3.000000 -0.750000 0.000000 
3.000000 0.750000 0.000000 
3.000000 2.250000 0.000000 
-2.250000 -3.000000 0.000000 
-0.750000 -3.000000 0.000000 
0.750000 -3.000000 0.000000 
2.250000 -3.000000 0.000000 
-3.000000 2.250000 0.000000 
-3.000000 0.750000 0.000000 
-3.000000 -0.750000 0.000000 
-3.000000 -2.250000 0.000000 
2.250000 3.000000 0.000000 
0.750000 3.000000 0.000000 
-0.750000 3.000000 0.000000 
-2.250000 3.000000 0.000000 
0.000000 -0.000000 0.000000 
1.223824 -1.249816 0.000000 
-1.249820 -1.223823 0.000000 
1.260356 1.225190 0.000000 
-1.223824 1.249816 0.000000 
0.000000 -1.678571 0.000000 
1.678571 0.000000 0.000000 
-1.678571 0.000000 0.000000 
0.000000 1.678571 0.000000 
1.942259 -1.967098 0.000000 
-1.967099 -1.942259 0.000000 
1.974272 1.926285 0.000000 
-1.942259 1.967098 0.000000 
2.188343 -1.157276 0.000000 
1.176384 -2.182568 0.000000 
-1.153197 -2.183543 0.000000 
-2.182568 -1.176384 0.000000 
2.293269 1.117047 0.000000 
1.155635 2.201679 0.000000 
-2.183543 1.153197 0.000000 
-1.174246 2.183649 0.000000 
-0.364031 -2.350890 0.000000 
0.381912 -2.349075 0.000000 
2.412511 -0.408196 0.000000 
2.345605 0.339265 0.000000 
-2.350890 0.364031 0.000000 
-2.349075 -0.381912 0.000000 
0.406179 2.409898 0.000000 
-0.401522 2.387396 0.000000 
-0.369528 -0.890466 0.000000 
0.890469 -0.369524 0.000000 
-0.890470 0.369524 0.000000 
0.373401 0.890559 0.000000 
-1.112278 -0.401019 0.000000 
0.401018 -1.112275 0.000000 
-0.401018 1.112275 0.000000 
1.114053 0.399865 0.000000 
2.386629 -2.379515 0.000000 
-2.379367 -2.386777 0.000000 
2.380812 2.385332 0.000000 
-2.386777 2.379367 0.000000 
1.639447 -0.700927 0.000000 
-0.700927 -1.639447 0.000000 
0.703552 1.639756 0.000000 
-1.639447 0.700927 0.000000 
0.639391 -1.718418 0.000000 
1.731593 0.624317 0.000000 
-1.718418 -0.639390 0.000000 
-0.649418 1.731841 0.000000 
2.560160 -1.890250 0.000000 
1.879224 -2.577669 0.000000 
-1.889961 -2.551941 0.000000 
-2.577669 -1.879224 0.000000 
1.892350 2.562299 0.000000 
2.568522 1.879497 0.000000 
-2.551941 1.889961 0.000000 
-1.879224 2.577669 0.000000 
3.000000 -1.125000 0.000000 
1.125000 -3.000000 0.000000 
-1.125000 -3.000000 0.000000 
-3.000000 -1.125000 0.000000 
3.000000 1.125000 0.000000 
1.125000 3.000000 0.000000 
-3.000000 1.125000 0.000000 
-1.125000 3.000000 0.000000 
1.440705 -1.746220 0.000000 
-1.746221 -1.440708 0.000000 
1.773677 1.455975 0.000000 
-1.440705 1.746220 0.000000 
-0.668709 -0.169422 0.000000 
0.169422 -0.668709 0.000000 
-0.169422 0.668709 0.000000 
0.668706 0.169421 0.000000 
-0.375000 -3.000000 0.000000 
3.000000 -0.375000 0.000000 
-3.000000 0.375000 0.000000 
0.375000 3.000000 0.000000 
0.375000 -3.000000 0.000000 
3.000000 0.375000 0.000000 
-3.000000 -0.375000 0.000000 
-0.375000 3.000000 0.000000 
3.000000 -2.625000 0.000000 
2.625000 -3.000000 0.000000 
-2.625000 -3.000000 0.000000 
-3.000000 -2.625000 0.000000 
3.000000 2.625000 0.000000 
2.625000 3.000000 0.000000 
-3.000000 2.625000 0.000000 
-2.625000 3.000000 0.000000 
1.929356 -1.544992 0.000000 
-1.544412 -1.928049 0.000000 
1.561370 1.929959 0.000000 
-1.928048 1.544411 0.000000 
0.180145 -2.719207 0.000000 
-2.719206 -0.180146 0.000000 
1.635420 -2.347351 0.000000 
-2.347351 -1.635420 0.000000 
2.355098 1.625371 0.000000 
-1.635417 2.347354 0.000000 
-1.163974 0.011154 0.000000 
-0.011156 -1.163973 0.000000 
0.011742 1.163760 0.000000 
1.164879 -0.012519 0.000000 
2.591476 0.653433 0.000000 
2.399832 -1.485083 0.000000 
-1.482150 -2.393723 0.000000 
1.487074 2.415920 0.000000 
-2.393723 1.482149 0.000000 
0.009106 -2.079443 0.000000 
2.117259 0.003368 0.000000 
-2.079443 -0.009107 0.000000 
-0.003368 2.117259 0.000000 
2.411816 -0.846053 0.000000 
-0.876645 -2.436710 0.000000 
0.846059 2.415613 0.000000 
-2.436710 0.876645 0.000000 
0.922746 -2.422241 0.000000 
-2.422241 -0.922746 0.000000 
-0.917167 2.415823 0.000000 
1.203449 -0.764263 0.000000 
-0.764263 -1.203445 0.000000 
0.764437 1.201508 0.000000 
-1.203449 0.764263 0.000000 
1.271920 -2.638165 0.000000 
-2.638165 -1.271921 0.000000 
2.647332 1.330823 0.000000 
-1.271998 2.638104 0.000000 
2.540044 -0.007768 0.000000 
-0.001397 2.539991 0.000000 
-0.187500 -2.675240 0.000000 
-2.675240 0.187500 0.000000 
3.000000 -1.875000 0.000000 
-1.875000 -3.000000 0.000000 
1.875000 3.000000 0.000000 
-3.000000 1.875000 0.000000 
1.875000 -3.000000 0.000000 
-3.000000 -1.875000 0.000000 
3.000000 1.875000 0.000000 
-1.875000 3.000000 0.000000 
2.682634 -1.217581 0.000000 
-1.219831 -2.686098 0.000000 
1.221997 2.680604 0.000000 
-2.686098 1.219831 0.000000 
-0.366219 -1.920838 0.000000 
-1.920838 0.366219 0.000000 
1.797468 -1.092319 0.000000 
-1.093582 -1.794154 0.000000 
1.094557 1.800911 0.000000 
-1.794154 1.093582 0.000000 
2.120713 0.688898 0.000000 
1.954654 -0.365243 0.000000 
0.365141 1.955037 0.000000 
0.993322 -1.747994 0.000000 
-1.747994 -0.993322 0.000000 
1.778633 0.971127 0.000000 
-0.993322 1.747994 0.000000 
2.026258 -0.759349 0.000000 
-0.785652 -1.995825 0.000000 
0.761928 2.025650 0.000000 
-1.995825 0.785652 0.000000 
0.620114 -2.699436 0.000000 
-2.699437 -0.620115 0.000000 
-0.613186 2.712642 0.000000 
2.716630 -0.571625 0.000000 
-0.578467 -2.705014 0.000000 
0.573746 2.718802 0.000000 
-2.705014 0.578467 0.000000 
0.734736 -1.380038 0.000000 
1.384911 0.729912 0.000000 
-1.380039 -0.734732 0.000000 
-0.734736 1.380038 0.000000 
-1.428521 0.338010 0.000000 
-0.338010 -1.428521 0.000000 
0.338010 1.428521 0.000000 
1.428521 -0.338010 0.000000 
2.614519 -2.623880 0.000000 
-2.623880 -2.614519 0.000000 
-2.614519 2.623880 0.000000 
2.622396 2.622396 0.000000 
0.351732 -1.477259 0.000000 
1.479205 0.349861 0.000000 
-1.477260 -0.351731 0.000000 
-0.351658 1.477347 0.000000 
0.941767 -2.745976 0.000000 
-2.745976 -0.941767 0.000000 
-0.941730 2.745057 0.000000 
0.350363 -1.887138 0.000000 
-1.887140 -0.350363 0.000000 
2.246357 -2.631772 0.000000 
-2.631772 -2.246357 0.000000 
2.628895 2.250000 0.000000 
-2.246357 2.631772 0.000000 
2.636416 -2.251408 0.000000 
-2.251185 -2.636166 0.000000 
2.252293 2.637366 0.000000 
-2.636166 2.251185 0.000000 
1.917652 0.313083 0.000000 
-0.347522 1.981414 0.000000 
2.661139 0.316729 0.000000 
2.232749 -1.804079 0.000000 
-1.802436 -2.233057 0.000000 
1.797636 2.214740 0.000000 
-2.233057 1.802436 0.000000 
-0.429374 0.255784 0.000000 
0.255784 0.429374 0.000000 
-0.255784 -0.429374 0.000000 
0.429374 -0.255784 0.000000 
0.759221 -2.034071 0.000000 
-2.034071 -0.759222 0.000000 
-0.754854 2.039571 0.000000 
2.089830 -2.316659 0.000000 
-2.316659 -2.089830 0.000000 
2.308140 2.085242 0.000000 
-2.089830 2.316659 0.000000 
2.735035 1.014540 0.000000 
-0.270064 2.730755 0.000000 
0.720679 -0.819949 0.000000 
-0.819950 -0.720670 0.000000 
0.820705 0.708223 0.000000 
-0.720679 0.819949 0.000000 
2.338374 -2.102764 0.000000 
-2.102003 -2.338629 0.000000 
2.097108 2.340184 0.000000 
-2.338629 2.102003 0.000000 
2.755466 -0.248699 0.000000 
0.248018 2.751228 0.000000 
1.594037 -2.712001 0.000000 
-2.712001 -1.594037 0.000000 
2.748259 1.625869 0.000000 
-1.594035 2.711999 0.000000 
2.698255 -1.584512 0.000000 
-1.585563 -2.700738 0.000000 
1.597021 2.703687 0.000000 
-2.700738 1.585563 0.000000 
0.004360 -2.434601 0.000000 
-2.434601 -0.004359 0.000000 
2.745754 -0.887103 0.000000 
-0.907632 -2.754894 0.000000 
0.891850 2.749813 0.000000 
-2.754894 0.907632 0.000000 
1.585802 -1.387244 0.000000 
-1.387461 -1.585306 0.000000 
1.401463 1.597600 0.000000 
-1.585305 1.387462 0.000000 
1.482618 -0.995752 0.000000 
-0.995753 -1.482615 0.000000 
0.999435 1.484782 0.000000 
-1.482618 0.995752 0.000000 
CELLS 494 1976
3 156 128 48
3 179 123 50
3 19 222 169
3 114 2 113
3 184 239 46
3 191 57 176
3 198 107 162
3 244 129 86
3 226 28 165
3 192 22 215
3 247 112 194
3 259 156 13
3 123 99 43
3 241 187 80
3 196 53 145
3 205 64 153
3 228 56 181
3 254 71 226
3 155 90 11
3 116 1 115
3 139 124 234
3 82 242 127
3 52 158 130
3 129 260 86
3 218 140 54
3 225 115 20
3 273 34 98
3 200 35 250
3 228 181 78
3 120 0 119
3 278 274 179
3 141 55 159
3 242 252 41
3 224 69 207
3 122 98 42
3 172 137 263
3 269 172 91
3 33 97 272
3 56 141 159
3 180 124 51
3 201 185 34
3 262 8 171
3 34 249 201
3 250 153 64
3 219 142 58
3 13 156 92
3 219 39 142
3 241 60 150
3 121 97 41
3 215 155 148
3 160 60 143
3 203 131 63
3 50 138 173
3 129 43 99
3 12 265 166
3 88 245 130
3 184 199 77
3 177 121 45
3 239 54 148
3 220 82 167
3 189 53 175
3 122 42 232
3 240 185 79
3 84 243 128
3 230 56 159
3 157 129 49
3 264 14 173
3 200 250 68
3 176 142 39
3 51 147 191
3 103 64 133
3 130 245 44
3 189 47 145
3 172 10 91
3 239 184 77
3 204 37 132
3 262 136 81
3 268 17 195
3 260 157 9
3 159 4 230
3 12 95 174
3 180 76 279
3 267 58 142
3 162 126 267
3 270 173 94
3 150 217 158
3 96 15 158
3 183 59 143
3 236 64 103
3 104 134 68
3 231 81 136
3 248 199 33
3 202 36 251
3 213 65 131
3 133 214 67
3 124 100 44
3 102 238 32
3 34 152 249
3 204 175 37
3 132 37 211
3 63 251 154
3 278 75 153
3 56 228 141
3 212 134 38
3 224 207 113
3 252 69 224
3 243 42 128
3 221 84 168
3 160 143 59
3 244 43 129
3 44 245 255
3 223 88 170
3 55 141 182
3 248 33 151
3 196 105 161
3 37 140 218
3 190 75 179
3 214 133 40
3 191 147 57
3 202 67 214
3 248 102 66
3 211 199 66
3 141 38 182
3 68 134 212
3 240 149 48
3 39 203 176
3 160 7 247
3 103 67 251
3 242 220 69
3 159 256 4
3 258 82 127
3 220 207 69
3 137 47 122
3 70 225 253
3 243 221 70
3 70 221 208
3 254 244 71
3 85 233 254
3 169 222 86
3 244 86 222
3 227 119 24
3 255 234 44
3 261 88 130
3 72 223 209
3 188 45 144
3 121 41 231
3 215 22 90
3 41 127 242
3 266 54 140
3 232 83 137
3 216 149 193
3 42 98 128
3 93 9 157
3 49 129 99
3 138 50 123
3 138 85 264
3 162 107 6
3 124 44 234
3 261 158 15
3 44 100 130
3 127 41 97
3 148 46 239
3 58 240 219
3 249 101 65
3 181 49 186
3 186 49 99
3 241 150 52
3 251 36 154
3 238 104 32
3 213 131 39
3 65 201 249
3 237 102 32
3 235 101 32
3 235 32 103
3 236 32 104
3 35 153 250
3 125 5 109
3 105 196 21
3 256 159 55
3 256 106 4
3 216 92 156
3 271 174 95
3 59 257 160
3 160 257 7
3 197 29 108
3 224 163 81
3 225 208 115
3 225 70 208
3 210 117 118
3 117 3 118
3 227 209 119
3 227 72 209
3 45 188 177
3 272 97 121
3 47 178 122
3 273 122 178
3 264 85 165
3 274 35 99
3 139 87 265
3 76 154 279
3 175 53 140
3 125 109 192
3 259 84 128
3 126 6 111
3 46 148 155
3 127 97 46
3 216 156 149
3 48 128 98
3 157 246 93
3 93 246 18
3 217 30 96
3 130 100 52
3 131 65 101
3 131 101 63
3 132 66 102
3 132 102 61
3 205 133 64
3 103 133 67
3 206 182 38
3 134 104 62
3 135 110 18
3 110 230 4
3 171 8 89
3 45 121 136
3 164 263 83
3 269 21 196
3 173 14 94
3 138 233 85
3 166 265 87
3 51 124 139
3 5 161 105
3 266 125 54
3 206 62 151
3 228 38 141
3 219 213 39
3 126 162 6
3 241 229 60
3 229 40 143
3 268 171 89
3 195 17 106
3 37 175 140
3 172 47 137
3 190 50 146
3 270 94 29
3 198 57 147
3 271 198 147
3 258 167 82
3 22 192 109
3 126 193 58
3 58 193 149
3 96 158 217
3 194 112 30
3 206 38 134
3 73 182 206
3 132 61 204
3 152 204 61
3 205 40 133
3 205 153 75
3 203 76 176
3 203 39 131
3 155 127 46
3 156 48 149
3 135 18 246
3 52 150 158
3 161 5 125
3 140 53 266
3 198 25 107
3 126 58 267
3 262 81 163
3 164 83 225
3 165 85 226
3 166 87 227
3 258 155 11
3 259 168 84
3 169 86 260
3 170 88 261
3 171 45 136
3 171 144 45
3 83 263 137
3 172 145 47
3 59 146 197
3 173 146 50
3 174 51 139
3 174 147 51
3 189 178 47
3 189 145 53
3 176 57 142
3 191 176 76
3 151 276 73
3 276 151 33
3 178 74 277
3 277 74 152
3 59 183 190
3 278 153 35
3 275 100 124
3 154 36 279
3 135 181 56
3 135 49 181
3 73 177 188
3 73 188 182
3 40 183 143
3 59 190 146
3 184 46 97
3 184 97 33
3 185 98 34
3 185 48 98
3 186 99 35
3 78 181 186
3 187 52 100
3 187 100 36
3 188 144 55
3 188 55 182
3 189 175 74
3 189 74 178
3 190 179 50
3 75 190 183
3 180 191 76
3 180 51 191
3 192 54 125
3 192 148 54
3 193 111 26
3 193 126 111
3 194 150 60
3 112 247 7
3 144 195 55
3 17 268 89
3 196 161 53
3 21 269 91
3 7 257 108
3 146 270 197
3 25 271 95
3 198 162 57
3 66 199 248
3 199 184 33
3 186 200 78
3 186 35 200
3 152 61 249
3 185 201 79
3 187 36 202
3 187 202 80
3 203 63 154
3 203 154 76
3 204 152 74
3 204 74 175
3 183 40 205
3 183 205 75
3 206 134 62
3 151 73 206
3 114 207 23
3 114 113 207
3 116 208 27
3 116 115 208
3 120 209 31
3 120 119 209
3 19 117 222
3 210 118 226
3 132 211 66
3 77 199 211
3 200 68 212
3 200 212 78
3 201 65 213
3 201 213 79
3 229 143 60
3 80 202 214
3 215 90 155
3 192 215 148
3 216 26 92
3 216 193 26
3 194 30 217
3 194 217 150
3 211 218 77
3 211 37 218
3 240 58 149
3 79 213 219
3 23 220 167
3 23 207 220
3 27 221 168
3 27 208 221
3 222 210 71
3 222 117 210
3 31 223 170
3 31 209 223
3 224 113 16
3 224 16 163
3 253 243 70
3 225 20 164
3 226 118 28
3 210 226 71
3 255 245 72
3 227 24 166
3 228 212 38
3 228 78 212
3 229 214 40
3 229 80 214
3 135 56 230
3 135 230 110
3 252 224 81
3 231 136 121
3 83 232 253
3 122 232 137
3 233 138 123
3 233 123 43
3 223 72 245
3 234 87 139
3 235 63 101
3 202 251 67
3 103 32 236
3 104 68 250
3 101 237 32
3 237 61 102
3 62 248 151
3 62 104 238
3 239 77 218
3 239 218 54
3 240 48 185
3 79 219 240
3 241 52 187
3 80 229 241
3 82 220 242
3 252 231 41
3 84 221 243
3 83 253 225
3 71 244 222
3 85 254 226
3 88 223 245
3 255 227 87
3 49 135 246
3 49 246 157
3 60 160 247
3 60 247 194
3 238 102 248
3 238 248 62
3 237 101 249
3 237 249 61
3 250 236 104
3 250 64 236
3 251 235 103
3 251 63 235
3 252 81 231
3 242 69 252
3 42 253 232
3 42 243 253
3 43 254 233
3 43 244 254
3 255 72 227
3 255 87 234
3 195 106 256
3 195 256 55
3 197 108 257
3 197 257 59
3 258 127 155
3 167 258 11
3 156 259 128
3 259 13 168
3 129 157 260
3 260 9 169
3 261 130 158
3 261 15 170
3 8 262 163
3 262 171 136
3 10 263 164
3 10 172 263
3 14 264 165
3 264 173 138
3 174 265 12
3 174 139 265
3 266 53 161
3 266 161 125
3 267 142 57
3 267 57 162
3 144 171 268
3 144 268 195
3 145 172 269
3 145 269 196
3 270 146 173
3 29 197 270
3 271 147 174
3 198 271 25
3 272 121 177
3 276 177 73
3 273 98 122
3 277 152 34
3 123 274 99
3 123 179 274
3 36 100 275
3 275 124 180
3 272 276 33
3 272 177 276
3 277 273 178
3 277 34 273
3 278 179 75
3 274 278 35
3 275 279 36
3 275 180 279
CELL_TYPES 494
5
5
5
5
5
5
5
5
5
5
5
5
5
5
5
5
5
5
5
5
5
5
5
5
5
5
5
5
5
5
5
5
5
5
5
5
5
5
5
5
5
5
5
5
5
5
5
5
5
5
5
5
5
5
5
5
5
5
5
5
5
5
5
5
5
5
5
5
5
5
5
5
5
5
5
5
5
5
5
5
5
5
5
5
5
5
5
5
5
5
5
5
5
5
5
5
5
5
5
5
5
5
5
5
5
5
5
5
5
5
5
5
5
5
5
5
5
5
5
5
5
5
5
5
5
5
5
5
5
5
5
5
5
5
5
5
5
5
5
5
5
5
5
5
5
5
5
5
5
5
5
5
5
5
5
5
5
5
5
5
5
5
5
5
5
5
5
5
5
5
5
5
5
5
5
5
5
5
5
5
5
5
5
5
5
5
5
5
5
5
5
5
5
5
5
5
5
5
5
5
5
5
5
5
5
5
5
5
5
5
5
5
5
5
5
5
5
5
5
5
5
5
5
5
5
5
5
5
5
5
5
5
5
5
5
5
5
5
5
5
5
5
5
5
5
5
5
5
5
5
5
5
5
5
5
5
5
5
5
5
5
5
5
5
5
5
5
5
5
5
5
5
5
5
5
5
5
5
5
5
5
5
5
5
5
5
5
5
5
5
5
5
5
5
5
5
5
5
5
5
5
5
5
5
5
5
5
5
5
5
5
5
5
5
5
5
5
5
5
5
5
5
5
5
5
5
5
5
5
5
5
5
5
5
5
5
5
5
5
5
5
5
5
5
5
5
5
5
5
5
5
5
5
5
5
5
5
5
5
5
5
5
5
5
5
5
5
5
5
5
5
5
5
5
5
5
5
5
5
5
5
5
5
5
5
5
5
5
5
5
5
5
5
5
5
5
5
5
5
5
5
5
5
5
5
5
5
5
5
5
5
5
5
5
5
5
5
5
5
5
5
5
5
5
5
5
5
5
5
5
5
5
5
5
5
5
5
5
5
5
5
5
5
5
5
5
5
5
5
5
5
5
5
5
5
5
5
5
5
5
5
5
5
5
5
5
5
5
5
5
5
5
5
5
5
5
5
5
5
5
5
5
5
5
5
5
5
5
5
5
5
5
5
5
CELL_DATA 494
SCALARS temperature DOUBLE 1
LOOKUP_TABLE temperature
3.133285354006e-25
2.629273073005e-06
1.936142766500e-21
2.788739614524e-51
3.469275162800e-22
9.789891195324e-11
1.666292048188e-18
5.795594624148e-15
3.309056806605e-18
1.270752569234e-33
2.943799356709e-08
1.219366304730e-30
8.105882783611e-09
1.206630782884e-03
4.349371300903e-28
2.564980034435e-01
3.183990054112e-11
3.010753593535e-16
4.529992287270e-37
2.788739614524e-51
6.703918917134e-12
1.299400049104e-33
6.118817641037e-09
5.055007714506e-16
8.495972466098e-22
1.198893516253e-45
4.813442483765e-18
1.186392776136e-03
3.251498617356e-09
2.614211226643e-26
1.571468018181e-04
1.351150601623e-15
8.921833021947e-32
3.574267251471e-40
4.620628762880e-24
3.338737541439e-33
7.340179881976e-35
3.081263412638e-18
2.844152212569e-14
2.715381077060e-09
6.740746940801e-14
1.542167883315e-30
2.221102868642e-11
1.161108637396e-01
9.972316894828e-14
3.309422818465e-30
3.873261564950e-11
2.510196093129e-05
5.447321627562e-24
2.824717591692e-31
1.030672618481e-04
6.567506302087e-05
8.687392762058e-09
1.098302434155e-10
6.418076960185e-20
1.203795704983e-12
6.211409534103e-17
2.625420878821e-20
5.953325185673e-25
9.905560334381e-40
5.285361642323e-22
1.556472033465e-27
4.848306536886e-15
3.046769567900e-31
8.394348209415e-16
7.580689344895e-14
3.195844587900e-12
1.035915929359e-03
3.418020332298e-10
2.695198271306e-11
9.338197592281e-01
1.171936055442e-11
5.984030737225e-25
3.045432181012e-37
1.532860197620e-19
1.639748356177e-13
3.652448934136e-30
1.499205206571e-24
3.030746515881e-18
1.058699182168e-18
4.207515416398e-19
1.438697708178e-06
7.142018608067e-15
1.107058579826e-17
2.259132971604e-10
1.197532330566e-08
4.636251034085e-12
8.552397271936e-04
5.037463667119e-01
2.906734147164e-04
2.374536920979e-29
1.702285539190e-12
1.656670160525e-02
1.671013385369e-07
5.377748922794e-01
9.215966657525e-09
1.575657035756e-04
8.762941001172e-12
2.141669126347e-16
1.108224630683e-13
6.675981051462e-03
1.278846905283e-02
7.103954795521e-12
6.041175802712e-07
9.386920778193e-44
1.163351725925e-36
1.840046856234e-29
1.561459198070e-36
9.333177275857e-05
4.927579286046e-13
2.765613274949e-13
5.816287123001e-16
2.664401823491e-14
2.494965358579e-11
2.743921453912e-32
8.635195148559e-19
8.935706357454e-04
3.563941367026e-01
4.667050488399e-12
1.735195532459e-01
1.068812470829e-08
5.575012436991e-13
1.970498053762e-11
2.274845454178e-05
1.216921189033e-19
4.255024599922e-08
1.902933561698e-07
3.625547838004e-01
2.287513602562e-37
6.885698083984e-20
2.533614574800e-34
1.088735896164e-40
9.669959804007e-27
1.445084580825e-37
1.718725138474e-36
3.962168012195e-40
2.428790508839e-15
6.754986691860e-13
4.063677949505e-19
8.216980351401e-17
7.890795449641e-23
5.927521138787e-13
3.274833175888e-12
1.389334437870e-18
2.474072153424e-19
2.104154096169e-26
6.273421035852e-36
7.410994302143e-31
3.096045470219e-24
3.483777919598e-32
6.416173803862e-23
4.216175804018e-25
5.469286892575e-19
5.042997521148e-11
5.002183854356e-08
5.445391806172e-12
2.559782150587e-20
5.252871451150e-11
3.123282927950e-12
4.607942023269e-09
1.306378829655e-26
4.096270173164e-25
4.431585244032e-15
8.415177074605e-07
5.438683917637e-10
4.830729953445e-09
7.083745133627e-06
4.003279673086e-03
2.575016895382e-03
6.384770412478e-08
4.597532345321e-09
8.834164208889e-05
4.579578017013e-03
7.484167740266e-02
2.527249449023e-02
1.101641969132e-02
6.152059373934e-34
1.751693922187e-34
2.659164354337e-18
2.168169338890e-22
2.216726736908e-27
6.218918545671e-18
3.671883436871e-06
1.699643185202e-07
2.587783808510e-09
1.494754060656e-36
7.727080352132e-45
1.002088167165e-40
8.811779568503e-24
2.614211226643e-26
4.892832829225e-22
3.623510453898e-19
3.692552325708e-18
7.061682983601e-21
2.489287151090e-23
2.746730672715e-21
2.324177939819e-14
7.222890240020e-06
9.302462169159e-16
2.603893512159e-05
5.975941988257e-22
1.614517028135e-32
1.158474170590e-30
4.052389398368e-22
8.789657343982e-29
7.514823668262e-26
1.627109988586e-24
6.388700192274e-23
9.855433820890e-18
3.868951205640e-19
1.325249110230e-10
1.121713140985e-07
7.093823041270e-06
2.159722897841e-04
2.496171515628e-09
1.220160871442e-08
6.570157054780e-01
8.393651527943e-01
3.231273517479e-10
5.241382409722e-05
6.770823274487e-19
4.122495501547e-20
3.266244900208e-30
1.937783922889e-23
3.482467808130e-38
1.279698727722e-33
4.400731092177e-12
1.956759178008e-11
1.716088625329e-18
2.842208904150e-11
1.084436104609e-33
2.029763810652e-27
1.519151740828e-08
2.434056832583e-10
3.607572075547e-10
6.875745599106e-20
4.481303355961e-04
1.286236462885e-02
3.138869360492e-27
2.217828693061e-24
6.249166230059e-19
9.977264988027e-30
9.021425228815e-06
1.500735248391e-10
1.313936431728e-14
7.193689579006e-16
2.220932389780e-38
1.739020839926e-34
1.667502335033e-19
4.810671100749e-20
2.083171514995e-10
2.495822984919e-09
7.731061927096e-08
1.711877329190e-11
5.431201713526e-11
1.633105231955e-11
3.809003793690e-01
6.668521325896e-02
2.406707703163e-07
8.002846411182e-07
1.073819095104e-29
3.541231875234e-23
1.550602276463e-17
8.669401232462e-08
4.725683062821e-32
3.091973371364e-24
2.047752123240e-19
2.233622562000e-17
5.289391032565e-34
1.164244086854e-39
5.418960463111e-16
4.254074598330e-19
2.081624556605e-36
4.024016900777e-34
8.794452437507e-19
2.226372581484e-14
7.780369017788e-25
7.340923490573e-23
5.276300176847e-34
6.662509619457e-29
1.633148853114e-06
1.085986164159e-07
1.243792525853e-13
1.273636807976e-13
2.253716884843e-22
8.234179326902e-25
1.034256798505e-11
1.714868389434e-08
1.951936533640e-12
3.955453600568e-13
1.003938932692e-17
3.901633442934e-15
4.561283450653e-04
3.916185073774e-03
2.506349767222e-07
2.049036462492e-04
3.648657013278e-13
1.226252833746e-12
2.291072966562e-15
5.758096881070e-14
1.388768963159e-02
2.771585450601e-05
4.900322315808e-22
2.006917744239e-18
7.497530896541e-17
4.803885001064e-19
2.037031356870e-06
1.683519099481e-08
1.344376046390e-05
1.091195448510e-04
4.093892930255e-18
1.515032973868e-15
3.226567269649e-19
1.778093727339e-19
3.966430360958e-05
3.425137850322e-03
6.998699575257e-08
2.456688145926e-09
4.881094343809e-29
4.503868620443e-28
2.030999150134e-24
4.942064655763e-22
1.510825598172e-06
9.457288177547e-09
4.577265899973e-20
3.424250490629e-27
8.078572915394e-29
6.209502778628e-36
8.429394592026e-09
9.013941249069e-08
3.128495824653e-19
5.434401854472e-16
3.589010424838e-11
5.813076133254e-16
1.284322127810e-06
1.891157452644e-05
8.350009078001e-10
2.409484450128e-13
2.751528629580e-03
6.333155622026e-03
2.772619761437e-04
1.787958054192e-05
2.873853728209e-14
1.334188561903e-16
7.156768729519e-02
3.426343082153e-02
5.402748779366e-07
1.075371049136e-10
7.353145059055e-47
1.229393084709e-47
3.225738064233e-45
1.268359851543e-47
6.841672596455e-22
9.389528342689e-24
8.506817640477e-23
5.682405189284e-21
7.291228958372e-12
2.717878812830e-15
4.206509938826e-05
3.154689927970e-06
2.184907270173e-09
3.629362358497e-11
8.536412507463e-04
4.609523098793e-02
1.100700063287e-34
1.034085011280e-30
2.403888453049e-27
9.621654602452e-25
3.399939064806e-09
6.236708286213e-08
6.351365687840e-17
1.875694279711e-16
4.353041834634e-18
1.655746952181e-11
3.644455139011e-43
1.710139295489e-43
6.822096634714e-40
7.767193328519e-42
3.733348779195e-19
4.931014585272e-22
3.574144957473e-18
1.366442304131e-19
1.830501651987e-43
6.190453147136e-40
4.034544139424e-35
3.327483227941e-43
1.191153951528e-20
1.238177148702e-18
2.055957386365e-15
1.797710948968e-21
2.930669058131e-08
8.840159232938e-08
6.023713786420e-02
2.531495176092e-02
2.403960066181e-15
8.074217157181e-18
4.812093961663e-35
6.352728781907e-26
1.484117559405e-33
2.220993241711e-28
1.883226816211e-09
7.273953179854e-10
3.765033619875e-16
2.662179583082e-14
3.049750824273e-03
1.396231789224e-01
1.334872352142e-01
4.454278837730e-03
4.666136448100e-04
8.822356518462e-07
1.471869094055e-08
1.459952095149e-04
1.788349229824e-19
5.352549642510e-22
8.607399660900e-18
7.669129160073e-14
6.447331354030e-05
2.698916303524e-03
8.836648985440e-37
5.814407863673e-30
6.977558301342e-35
7.239138325247e-37
5.490813312125e-17
4.239753500893e-15
5.452303412892e-15
6.217778011644e-17
9.554038308132e-15
5.415249997410e-15
4.523521976545e-06
9.358815722685e-07
1.408990305737e-06
1.689399741167e-06
5.809381399244e-06
2.322870686466e-07
3.746354438096e-02
1.840420832761e-01
1.583383239998e-01
2.583341183690e-02
1.142760622596e-31
4.243534757393e-35
6.967071161537e-31
9.438369929182e-32
5.824332409741e-12
2.951648495414e-13
3.657895541222e-17
7.451208010754e-15
2.726169638208e-22
4.859430759588e-20
2.723957289856e-08
7.772341364467e-07
3.165732502398e-33
8.845487757581e-40
1.340785041754e-28
2.318548161958e-34
7.979382671731e-16
3.705236278185e-20
6.124131135849e-11
1.481006763333e-14
2.881145359211e-34
3.810020782067e-28
1.073113344934e-39
1.753653149922e-36
1.535644056022e-14
9.262370307673e-11
4.147898844494e-18
9.861667054159e-16
3.355978980224e-27
5.083057777051e-29
8.624616757393e-14
1.313548751182e-15
4.219805695709e-24
1.780737746492e-22
1.878846663184e-31
1.011593041032e-30
1.659907472364e-08
3.982102288814e-09
1.063952853612e-15
3.900880200016e-18
1.926240598278e-19
1.188500871984e-14
2.851384571897e-21
1.969008628030e-14
4.343533410339e-07
5.246859813278e-06
1.515303485160e-05
8.905709576214e-08
8.714086205049e-16
1.481807697354e-16
1.478155210952e-18
9.704419951899e-17
1.649046957145e-03
2.255529199608e-04
2.879081685999e-05
1.743682848791e-06
VECTORS Velocity DOUBLE
-4.276466254992e+00 7.506400081729e+00 0.000000000000e+00
6.212549616241e+00 -3.991458900370e+00 0.000000000000e+00
6.675884386107e+00 -9.036158120058e+00 0.000000000000e+00
-9.032078879071e+00 -9.032078879071e+00 0.000000000000e+00
-6.246149464247e+00 -3.067165633727e+00 0.000000000000e+00
1.587448497528e+00 6.563364959738e+00 0.000000000000e+00
1.194817609872e+00 8.775782334252e+00 0.000000000000e+00
5.853948925801e+00 -7.573081457653e+00 0.000000000000e+00
9.045028688208e+00 -6.678285618294e+00 0.000000000000e+00
-8.844014993277e+00 -2.420996844990e+00 0.000000000000e+00
8.841904770308e+00 1.317635641098e+00 0.000000000000e+00
-4.572020492395e+00 8.744272739522e+00 0.000000000000e+00
5.562941250742e+00 -5.559905654293e+00 0.000000000000e+00
5.779908355926e+00 2.510754295236e+00 0.000000000000e+00
-7.846247221915e+00 1.905001732186e+00 0.000000000000e+00
3.686751534292e+00 -1.545505239019e+00 0.000000000000e+00
1.404549179690e+00 -6.685277971433e+00 0.000000000000e+00
7.710392206726e+00 -7.047862560677e+00 0.000000000000e+00
-9.045865195314e+00 -4.080845295078e+00 0.000000000000e+00
-9.032078879071e+00 9.032078879071e+00 0.000000000000e+00
5.056912261411e+00 6.864199612856e+00 0.000000000000e+00
-7.583468959971e+00 -5.868991774436e+00 0.000000000000e+00
7.507471985841e+00 4.274305316682e+00 0.000000000000e+00
5.372895245589e+00 -8.033972911972e+00 0.000000000000e+00
-6.613740066590e+00 -7.763731132397e-01 0.000000000000e+00
-9.043772105818e+00 7.462523299396e+00 0.000000000000e+00
-4.450417737580e+00 4.590393067811e+00 0.000000000000e+00
2.789027881649e+00 -3.629556858942e+00 0.000000000000e+00
1.703055024754e+00 -6.042285571998e+00 0.000000000000e+00
9.032078879071e+00 9.032078879071e+00 0.000000000000e+00
5.113772129995e+00 -3.660431513362e+00 0.000000000000e+00
-4.320700444360e-01 -7.403491233955e+00 0.000000000000e+00
-6.687950001331e+00 -6.671133931847e+00 0.000000000000e+00
-7.597211239148e+00 -7.998038563201e+00 0.000000000000e+00
-5.561682278948e+00 5.505883925952e+00 0.000000000000e+00
-8.147782583934e+00 4.489905146342e+00 0.000000000000e+00
-8.839386042142e+00 3.405970600145e+00 0.000000000000e+00
-4.590160118567e+00 -4.450937182159e+00 0.000000000000e+00
3.506692221969e-01 -7.333428055105e+00 0.000000000000e+00
3.970124899820e+00 6.184481233473e+00 0.000000000000e+00
-3.091198068256e+00 4.584477381209e+00 0.000000000000e+00
-4.505140766190e+00 -8.776446360494e+00 0.000000000000e+00
-2.805677636222e+00 3.612631775688e+00 0.000000000000e+00
2.932457826482e+00 -2.050982313918e+00 0.000000000000e+00
-7.763735125515e-01 6.613742014965e+00 0.000000000000e+00
-4.080845646081e+00 9.045864912914e+00 0.000000000000e+00
-3.764360318131e-01 5.911592229363e+00 0.000000000000e+00
7.165753474808e+00 2.171408322836e+00 0.000000000000e+00
-5.506490493785e+00 -5.563049179831e+00 0.000000000000e+00
-8.174824521364e+00 -3.284465088086e+00 0.000000000000e+00
7.377136211423e+00 4.254628100109e-01 0.000000000000e+00
7.526086758240e-01 3.647351850405e+00 0.000000000000e+00
7.642660713152e+00 -4.047111003263e+00 0.000000000000e+00
5.243978245549e+00 -6.391095101313e+00 0.000000000000e+00
5.194689913765e+00 9.111391475409e+00 0.000000000000e+00
7.583472770178e+00 5.868988702828e+00 0.000000000000e+00
-5.075191158137e+00 -2.479187804980e+00 0.000000000000e+00
-3.973682633762e+00 -6.194349333172e+00 0.000000000000e+00
-7.126585189584e+00 -2.161288418204e+00 0.000000000000e+00
-8.596906753094e+00 -6.283794463045e+00 0.000000000000e+00
-6.563364961413e+00 1.587448662387e+00 0.000000000000e+00
-6.391428295054e+00 5.564752240809e+00 0.000000000000e+00
-2.504827453088e+00 5.760092203824e+00 0.000000000000e+00
-5.868991785818e+00 7.583469073721e+00 0.000000000000e+00
6.788193196182e-01 -7.902977145642e+00 0.000000000000e+00
4.265488245714e+00 -7.640037140241e+00 0.000000000000e+00
8.780009428090e+00 -4.522864475309e+00 0.000000000000e+00
1.924749909642e+00 -3.476349286559e+00 0.000000000000e+00
3.739668366286e-01 5.946880278691e+00 0.000000000000e+00
2.948377968311e+00 6.928341069982e+00 0.000000000000e+00
2.851548118501e+00 -2.259029785789e-01 0.000000000000e+00
6.944084483047e+00 5.934998567413e+00 0.000000000000e+00
-6.928340603734e+00 2.948378076779e+00 0.000000000000e+00
-9.096060620278e+00 4.026297168515e+00 0.000000000000e+00
-5.760092626956e+00 -2.504827889845e+00 0.000000000000e+00
-4.472649594798e+00 3.656459518345e-01 0.000000000000e+00
-5.193936870229e+00 -8.019698151012e+00 0.000000000000e+00
-2.312974046313e+00 -8.861788267702e+00 0.000000000000e+00
4.667037017104e+00 -8.791842390035e+00 0.000000000000e+00
3.235421774736e-01 -8.588257765126e+00 0.000000000000e+00
4.026297128820e+00 9.096060730429e+00 0.000000000000e+00
2.921954361621e+00 5.148251459223e+00 0.000000000000e+00
-4.140390514244e-01 7.187042201290e+00 0.000000000000e+00