# vtk DataFile Version 2.0
Mech 588 VTK File
ASCII
DATASET UNSTRUCTURED_GRID
POINTS 6 DOUBLE
3.250000 1.250000 0.000000 
3.000000 0.250000 0.000000 
2.000000 1.000000 0.000000 
4.500000 0.500000 0.000000 
1.500000 0.000000 0.000000 
2.500000 2.250000 0.000000 
CELLS 4 16
3 1 0 2
3 1 3 0
3 2 0 5
3 4 1 2
CELL_TYPES 4
5
5
5
5
CELL_DATA 4
SCALARS temperature DOUBLE 1
LOOKUP_TABLE temperature
1.122929031774e-07
1.186159573727e-15
5.949894145554e-07
8.542811230613e-06
