# vtk DataFile Version 2.0
TITLE = "Quad data"
ASCII
DATASET STRUCTURED_GRID
Dimensions 9 33 1
POINTS 297 FLOAT
0 2 0
0 2.125 0
0 2.25 0
0 2.375 0
0 2.5 0
0 2.625 0
0 2.75 0
0 2.875 0
0 3 0
0.125 2 0
0.125318 2.12438 0
0.125604 2.24886 0
0.125824 2.37351 0
0.125939 2.4984 0
0.12591 2.62352 0
0.125724 2.74887 0
0.125402 2.87439 0
0.125 3 0
0.25 2 0
0.25066 2.12367 0
0.251269 2.24754 0
0.251754 2.3718 0
0.25202 2.49654 0
0.251981 2.62181 0
0.251592 2.74757 0
0.250889 2.87369 0
0.25 3 0
0.375 2 0
0.376053 2.12275 0
0.377058 2.24585 0
0.377899 2.36959 0
0.378409 2.49415 0
0.378409 2.61961 0
0.377785 2.74588 0
0.376571 2.87278 0
0.375 3 0
0.5 2 0
0.501501 2.12149 0
0.503009 2.24352 0
0.504376 2.36654 0
0.505315 2.49085 0
0.505475 2.61655 0
0.504589 2.74354 0
0.502636 2.87152 0
0.5 3 0
0.625 2 0
0.626941 2.11966 0
0.629092 2.24015 0
0.631281 2.36217 0
0.633003 2.48611 0
0.633608 2.61214 0
0.632496 2.74014 0
0.629437 2.86968 0
0.625 3 0
0.75 2 0
0.752146 2.11692 0
0.755113 2.2352 0
0.758625 2.35577 0
0.761802 2.47916 0
0.763483 2.60562 0
0.762429 2.73505 0
0.757746 2.86689 0
0.75 3 0
0.875 2 0
0.876425 2.1127 0
0.880468 2.22781 0
0.886197 2.34636 0
0.89203 2.46892 0
0.896106 2.59584 0
0.896151 2.72715 0
0.8895 2.86241 0
0.875 3 0
1 2 0
0.997672 2.1059 0
1.00375 2.21673 0
1.01335 2.3326 0
1.02378 2.45389 0
1.03266 2.58104 0
1.03682 2.71445 0
1.03057 2.85434 0
1 3 0
1.09802 1.99518 0
1.10858 2.09418 0
1.1225 2.2002 0
1.13897 2.31283 0
1.15653 2.43224 0
1.17344 2.5589 0
1.18755 2.69353 0
1.19608 2.83701 0
1.19603 2.99037 0
1.19509 1.98079 0
1.21518 2.07475 0
1.23776 2.17633 0
1.26262 2.2854 0
1.28905 2.40218 0
1.31606 2.52724 0
1.34251 2.66141 0
1.36731 2.80574 0
1.39018 2.96157 0
1.29028 1.95694 0
1.31874 2.04655 0
1.34992 2.14384 0
1.38376 2.24898 0
1.41995 2.36234 0
1.45803 2.48455 0
1.49755 2.61646 0
1.53827 2.75914 0
1.58057 2.91388 0
1.38268 1.92388 0
1.41902 2.00921 0
1.45864 2.10207 0
1.50158 2.20279 0
1.5478 2.31186 0
1.59719 2.42996 0
1.64974 2.55794 0
1.70561 2.6968 0
1.76537 2.84776 0
1.4714 1.88192 0
1.51529 1.96274 0
1.56313 2.05076 0
1.61505 2.14646 0
1.67119 2.25037 0
1.73171 2.36317 0
1.79684 2.48569 0
1.86699 2.61888 0
1.94279 2.76384 0
1.55557 1.83147 0
1.60672 1.90734 0
1.66246 1.99003 0
1.72305 2.08002 0
1.78878 2.17788 0
1.85997 2.28427 0
1.93704 2.39996 0
2.02052 2.52584 0
2.11114 2.66294 0
1.63439 1.77301 0
1.69242 1.84344 0
1.75567 1.92021 0
1.8245 2.00381 0
1.89931 2.09477 0
1.98054 2.1937 0
2.06874 2.30131 0
2.16455 2.41844 0
2.26879 2.54602 0
1.70711 1.70711 0
1.77158 1.77158 0
1.84186 1.84186 0
1.91839 1.91839 0
2.00164 2.00163 0
2.09215 2.09215 0
2.19056 2.19056 0
2.29763 2.29763 0
2.41421 2.41421 0
1.77301 1.63439 0
1.84344 1.69242 0
1.92021 1.75567 0
2.00381 1.8245 0
2.09477 1.89931 0
2.1937 1.98054 0
2.30131 2.06874 0
2.41844 2.16455 0
2.54602 2.26879 0
1.83147 1.55557 0
1.90734 1.60672 0
1.99003 1.66246 0
2.08002 1.72305 0
2.17788 1.78878 0
2.28427 1.85997 0
2.39996 1.93704 0
2.52584 2.02052 0
2.66294 2.11114 0
1.88192 1.4714 0
1.96274 1.51529 0
2.05076 1.56313 0
2.14646 1.61505 0
2.25037 1.67119 0
2.36317 1.73172 0
2.48569 1.79685 0
2.61888 1.86699 0
2.76384 1.94279 0
1.92388 1.38268 0
2.00921 1.41902 0
2.10207 1.45864 0
2.20279 1.50158 0
2.31186 1.5478 0
2.42997 1.59719 0
2.55794 1.64974 0
2.69681 1.70561 0
2.84776 1.76537 0
1.95694 1.29028 0
2.04655 1.31874 0
2.14384 1.34992 0
2.24898 1.38376 0
2.36234 1.41995 0
2.48455 1.45803 0
2.61646 1.49755 0
2.75914 1.53827 0
2.91388 1.58057 0
1.98079 1.19509 0
2.07474 1.21518 0
2.17633 1.23776 0
2.2854 1.26262 0
2.40218 1.28905 0
2.52724 1.31606 0
2.66141 1.34251 0
2.80574 1.36731 0
2.96157 1.39018 0
1.99518 1.09802 0
2.09418 1.10858 0
2.2002 1.12251 0
2.31283 1.13897 0
2.43223 1.15653 0
2.5589 1.17344 0
2.69353 1.18755 0
2.83701 1.19608 0
2.99037 1.19603 0
2 1 0
2.1059 0.997673 0
2.21673 1.00375 0
2.33259 1.01335 0
2.45389 1.02378 0
2.58104 1.03266 0
2.71445 1.03682 0
2.85434 1.03057 0
3 1 0
2 0.875 0
2.11271 0.876426 0
2.22781 0.880471 0
2.34636 0.8862 0
2.46892 0.892032 0
2.59583 0.896107 0
2.72715 0.896151 0
2.86241 0.8895 0
3 0.875 0
2 0.75 0
2.11693 0.752148 0
2.2352 0.755116 0
2.35577 0.758627 0
2.47916 0.761804 0
2.60562 0.763484 0
2.73504 0.762429 0
2.86689 0.757745 0
3 0.75 0
2 0.625 0
2.11966 0.626941 0
2.24016 0.629096 0
2.36217 0.631284 0
2.48611 0.633005 0
2.61214 0.633609 0
2.74014 0.632497 0
2.86968 0.629437 0
3 0.625 0
2 0.5 0
2.12149 0.501502 0
2.24352 0.50301 0
2.36655 0.504379 0
2.49085 0.505317 0
2.61655 0.505477 0
2.74354 0.50459 0
2.87152 0.502637 0
3 0.5 0
2 0.375 0
2.12276 0.376055 0
2.24586 0.377059 0
2.3696 0.377901 0
2.49416 0.378411 0
2.61961 0.378411 0
2.74589 0.377787 0
2.87278 0.376573 0
3 0.375 0
2 0.25 0
2.12367 0.25066 0
2.24755 0.25127 0
2.3718 0.251754 0
2.49655 0.252021 0
2.62182 0.251982 0
2.74757 0.251592 0
2.87369 0.250889 0
3 0.25 0
2 0.125 0
2.12438 0.125316 0
2.24886 0.125603 0
2.37352 0.125825 0
2.4984 0.125939 0
2.62353 0.12591 0
2.74888 0.125724 0
2.87439 0.125402 0
3 0.125 0
2 0 0
2.125 0 0
2.25 0 0
2.375 0 0
2.5 0 0
2.625 0 0
2.75 0 0
2.875 0 0
3 0 0
POINT_DATA 297
SCALARS temperature FLOAT 1
 LOOKUP_TABLE default
0
0
0
0
0
0
0
0
0
0
0
0
0
0
0
0
0
0
0
0
0
0
0
0
0
0
0
0
0
0
0
0
0
0
0
0
0
0
0
0
0
0
0
0
0
0
0
0
0
0
0
0
0
0
0
0
0
0
0
0
0
0
0
0
0
0
0
0
0
0
0
0
0
0
0
0
0
0
0
0
0
0
0
0
0
0
0
0
0
0
0
0
0
0
0
0
0
0
0
0
0
0
0
0
0
0
0
0
0
0
0
0
0
0
0
0
0
0
0
0
0
0
0
0
0
0
0
0
0
0
0
0
0
0
0
0
0
0
0
0
0
0
0
0
0
0
0
0
0
0
0
0
0
0
0
0
0
0
0
0
0
0
0
0
0
0
0
0
0
0
0
0
0
0
0
0
0
0
0
0
0
0
0
0
0
0
0
0
0
0
0
0
0
0
0
0
0
0
0
0
0
0
0
0
0
0
0
0
0
0
0
0
0
0
0
0
0
0
0
0
0
0
0
0
0
0
0
0
0
0
0
0
0
0
0
0
0
0
0
0
0
0
0
0
0
0
0
0
0
0
0
0
0
0
0
0
0
0
0
0
0
0
0
0
0
0
0
0
0
0
0
0
0
0
0
0
0
0
0
0
0
0
0
0
0
0
0
0
0
0
0
0
0
0
0
0
0
VECTORS velocity FLOAT
1 0 0
1 0 0
1 0 0
1 0 0
1 0 0
1 0 0
1 0 0
1 0 0
1 0 0
1 0 0
1 0 0
1 0 0
1 0 0
1 0 0
1 0 0
1 0 0
1 0 0
1 0 0
1 0 0
1 0 0
1 0 0
1 0 0
1 0 0
1 0 0
1 0 0
1 0 0
1 0 0
1 0 0
1 0 0
1 0 0
1 0 0
1 0 0
1 0 0
1 0 0
1 0 0
1 0 0
1 0 0
1 0 0
1 0 0
1 0 0
1 0 0
1 0 0
1 0 0
1 0 0
1 0 0
1 0 0
1 0 0
1 0 0
1 0 0
1 0 0
1 0 0
1 0 0
1 0 0
1 0 0
1 0 0
1 0 0
1 0 0
1 0 0
1 0 0
1 0 0
1 0 0
1 0 0
1 0 0
1 0 0
1 0 0
1 0 0
1 0 0
1 0 0
1 0 0
1 0 0
1 0 0
1 0 0
0.998817 -0.0486318 0
0.998734 -0.0502943 0
0.998489 -0.0549463 0
0.998197 -0.0600257 0
0.99795 -0.0639923 0
0.997846 -0.0656 0
0.997988 -0.0634019 0
0.99849 -0.0549414 0
0.999048 -0.0436136 0
0.989106 -0.147203 0
0.988866 -0.148808 0
0.988476 -0.151378 0
0.988059 -0.154078 0
0.987756 -0.156005 0
0.987703 -0.156345 0
0.988011 -0.154386 0
0.988737 -0.149665 0
0.989576 -0.144013 0
0.969887 -0.243556 0
0.969563 -0.244843 0
0.969176 -0.246371 0
0.96881 -0.247806 0
0.968584 -0.248687 0
0.968611 -0.24858 0
0.968967 -0.247192 0
0.969642 -0.244528 0
0.970388 -0.24155 0
0.941377 -0.337355 0
0.941046 -0.338277 0
0.940712 -0.339205 0
0.940434 -0.339976 0
0.940295 -0.340362 0
0.940369 -0.340156 0
0.940695 -0.339253 0
0.941241 -0.337736 0
0.941823 -0.336109 0
0.903837 -0.427878 0
0.903548 -0.428486 0
0.903284 -0.429042 0
0.903087 -0.429458 0
0.903009 -0.429621 0
0.903095 -0.42944 0
0.90336 -0.428884 0
0.903768 -0.428023 0
0.904193 -0.427123 0
0.857609 -0.514302 0
0.857389 -0.514669 0
0.857198 -0.514986 0
0.857067 -0.515205 0
0.857027 -0.515272 0
0.857102 -0.515147 0
0.857294 -0.514827 0
0.857577 -0.514355 0
0.857868 -0.51387 0
0.803131 -0.595803 0
0.802991 -0.595992 0
0.802873 -0.59615 0
0.802796 -0.596253 0
0.802778 -0.596278 0
0.802829 -0.59621 0
0.802948 -0.59605 0
0.803117 -0.595821 0
0.803291 -0.595587 0
0.740923 -0.671589 0
0.740873 -0.671645 0
0.740832 -0.671691 0
0.740805 -0.67172 0
0.7408 -0.671726 0
0.740819 -0.671705 0
0.740861 -0.671659 0
0.74092 -0.671593 0
0.74098 -0.671527 0
0.67159 -0.740923 0
0.671645 -0.740873 0
0.67169 -0.740832 0
0.671719 -0.740806 0
0.671726 -0.7408 0
0.671705 -0.740818 0
0.671659 -0.74086 0
0.671594 -0.74092 0
0.671527 -0.74098 0
0.595803 -0.803131 0
0.595992 -0.802991 0
0.59615 -0.802873 0
0.596253 -0.802796 0
0.596278 -0.802778 0
0.59621 -0.802828 0
0.59605 -0.802947 0
0.595821 -0.803117 0
0.595587 -0.803291 0
0.514302 -0.857609 0
0.514669 -0.857389 0
0.514987 -0.857198 0
0.515205 -0.857067 0
0.515272 -0.857027 0
0.515147 -0.857102 0
0.514827 -0.857294 0
0.514355 -0.857577 0
0.51387 -0.857868 0
0.427878 -0.903837 0
0.428486 -0.903548 0
0.429042 -0.903284 0
0.429458 -0.903087 0
0.429621 -0.903009 0
0.42944 -0.903096 0
0.428884 -0.90336 0
0.428023 -0.903768 0
0.427123 -0.904193 0
0.337355 -0.941377 0
0.338277 -0.941046 0
0.339205 -0.940712 0
0.339976 -0.940434 0
0.340361 -0.940295 0
0.340155 -0.940369 0
0.339253 -0.940695 0
0.337736 -0.941241 0
0.336109 -0.941823 0
0.243557 -0.969887 0
0.244843 -0.969563 0
0.246371 -0.969176 0
0.247806 -0.96881 0
0.248687 -0.968584 0
0.24858 -0.968611 0
0.247191 -0.968967 0
0.244528 -0.969642 0
0.24155 -0.970388 0
0.147204 -0.989106 0
0.148808 -0.988866 0
0.151379 -0.988476 0
0.154079 -0.988059 0
0.156005 -0.987756 0
0.156345 -0.987703 0
0.154386 -0.988011 0
0.149665 -0.988737 0
0.144013 -0.989576 0
0.0486321 -0.998817 0
0.0502955 -0.998734 0
0.0549476 -0.998489 0
0.0600265 -0.998197 0
0.0639925 -0.99795 0
0.0656 -0.997846 0
0.0634019 -0.997988 0
0.0549414 -0.99849 0
0.0436137 -0.999048 0
0 -1 0
0 -1 0
0 -1 0
0 -1 0
0 -1 0
0 -1 0
0 -1 0
0 -1 0
0 -1 0
0 -1 0
0 -1 0
0 -1 0
0 -1 0
0 -1 0
0 -1 0
0 -1 0
0 -1 0
0 -1 0
0 -1 0
0 -1 0
0 -1 0
0 -1 0
0 -1 0
0 -1 0
0 -1 0
0 -1 0
0 -1 0
0 -1 0
0 -1 0
0 -1 0
0 -1 0
0 -1 0
0 -1 0
0 -1 0
0 -1 0
0 -1 0
0 -1 0
0 -1 0
0 -1 0
0 -1 0
0 -1 0
0 -1 0
0 -1 0
0 -1 0
0 -1 0
0 -1 0
0 -1 0
0 -1 0
0 -1 0
0 -1 0
0 -1 0
0 -1 0
0 -1 0
0 -1 0
0 -1 0
0 -1 0
0 -1 0
0 -1 0
0 -1 0
0 -1 0
0 -1 0
0 -1 0
0 -1 0
0 -1 0
0 -1 0
0 -1 0
0 -1 0
0 -1 0
0 -1 0
0 -1 0
0 -1 0
0 -1 0
0 -1 0
0 -1 0
0 -1 0
0 -1 0
0 -1 0
0 -1 0
0 -1 0
0 -1 0
0 -1 0
