# vtk DataFile Version 2.0
TITLE = "Quad data"
ASCII
DATASET STRUCTURED_GRID
DIMENSIONS 41 41 1
POINTS 1681 FLOAT
0.000000 0.000000 0.000000
0.000000 0.026961 0.000000
0.000000 0.053911 0.000000
0.000000 0.080836 0.000000
0.000000 0.107725 0.000000
0.000000 0.134567 0.000000
0.000000 0.161350 0.000000
0.000000 0.188062 0.000000
0.000000 0.214695 0.000000
0.000000 0.241236 0.000000
0.000000 0.267678 0.000000
0.000000 0.294010 0.000000
0.000000 0.320225 0.000000
0.000000 0.346316 0.000000
0.000000 0.372275 0.000000
0.000000 0.398097 0.000000
0.000000 0.423776 0.000000
0.000000 0.449309 0.000000
0.000000 0.474692 0.000000
0.000000 0.499923 0.000000
0.000000 0.525000 0.000000
0.000000 0.549923 0.000000
0.000000 0.574692 0.000000
0.000000 0.599309 0.000000
0.000000 0.623776 0.000000
0.000000 0.648097 0.000000
0.000000 0.672275 0.000000
0.000000 0.696316 0.000000
0.000000 0.720225 0.000000
0.000000 0.744010 0.000000
0.000000 0.767678 0.000000
0.000000 0.791236 0.000000
0.000000 0.814695 0.000000
0.000000 0.838062 0.000000
0.000000 0.861350 0.000000
0.000000 0.884567 0.000000
0.000000 0.907725 0.000000
0.000000 0.930836 0.000000
0.000000 0.953911 0.000000
0.000000 0.976961 0.000000
0.000000 1.000000 0.000000
0.025000 0.000000 0.000000
0.025154 0.026907 0.000000
0.025307 0.053803 0.000000
0.025458 0.080675 0.000000
0.025606 0.107512 0.000000
0.025751 0.134303 0.000000
0.025890 0.161036 0.000000
0.026025 0.187702 0.000000
0.026153 0.214289 0.000000
0.026274 0.240788 0.000000
0.026387 0.267189 0.000000
0.026492 0.293485 0.000000
0.026587 0.319667 0.000000
0.026672 0.345727 0.000000
0.026748 0.371660 0.000000
0.026812 0.397459 0.000000
0.026865 0.423119 0.000000
0.026907 0.448638 0.000000
0.026937 0.474010 0.000000
0.026955 0.499234 0.000000
0.026961 0.524309 0.000000
0.026955 0.549234 0.000000
0.026937 0.574010 0.000000
0.026907 0.598638 0.000000
0.026865 0.623119 0.000000
0.026812 0.647459 0.000000
0.026748 0.671660 0.000000
0.026672 0.695727 0.000000
0.026587 0.719667 0.000000
0.026492 0.743485 0.000000
0.026387 0.767189 0.000000
0.026274 0.790788 0.000000
0.026153 0.814289 0.000000
0.026025 0.837702 0.000000
0.025890 0.861036 0.000000
0.025751 0.884303 0.000000
0.025606 0.907512 0.000000
0.025458 0.930675 0.000000
0.025307 0.953803 0.000000
0.025154 0.976907 0.000000
0.025000 1.000000 0.000000
0.050000 0.000000 0.000000
0.050307 0.026748 0.000000
0.050612 0.053485 0.000000
0.050913 0.080200 0.000000
0.051209 0.106883 0.000000
0.051497 0.133524 0.000000
0.051775 0.160113 0.000000
0.052043 0.186639 0.000000
0.052299 0.213093 0.000000
0.052540 0.239467 0.000000
0.052765 0.265751 0.000000
0.052974 0.291938 0.000000
0.053164 0.318021 0.000000
0.053335 0.343993 0.000000
0.053485 0.369847 0.000000
0.053613 0.395580 0.000000
0.053719 0.421185 0.000000
0.053803 0.446660 0.000000
0.053863 0.472001 0.000000
0.053899 0.497206 0.000000
0.053911 0.522275 0.000000
0.053899 0.547206 0.000000
0.053863 0.572001 0.000000
0.053803 0.596660 0.000000
0.053719 0.621185 0.000000
0.053613 0.645580 0.000000
0.053485 0.669847 0.000000
0.053335 0.693993 0.000000
0.053164 0.718021 0.000000
0.052974 0.741938 0.000000
0.052765 0.765751 0.000000
0.052540 0.789467 0.000000
0.052299 0.813093 0.000000
0.052043 0.836639 0.000000
0.051775 0.860113 0.000000
0.051497 0.883524 0.000000
0.051209 0.906883 0.000000
0.050913 0.930200 0.000000
0.050612 0.953485 0.000000
0.050307 0.976748 0.000000
0.050000 1.000000 0.000000
0.075000 0.000000 0.000000
0.075458 0.026492 0.000000
0.075913 0.052974 0.000000
0.076362 0.079438 0.000000
0.076803 0.105874 0.000000
0.077233 0.132275 0.000000
0.077650 0.158630 0.000000
0.078049 0.184933 0.000000
0.078430 0.211174 0.000000
0.078790 0.237346 0.000000
0.079127 0.263442 0.000000
0.079438 0.289455 0.000000
0.079722 0.315380 0.000000
0.079976 0.341209 0.000000
0.080200 0.366938 0.000000
0.080392 0.392563 0.000000
0.080550 0.418080 0.000000
0.080675 0.443485 0.000000
0.080764 0.468776 0.000000
0.080818 0.493952 0.000000
0.080836 0.519010 0.000000
0.080818 0.543952 0.000000
0.080764 0.568776 0.000000
0.080675 0.593485 0.000000
0.080550 0.618080 0.000000
0.080392 0.642563 0.000000
0.080200 0.666938 0.000000
0.079976 0.691209 0.000000
0.079722 0.715380 0.000000
0.079438 0.739455 0.000000
0.079127 0.763442 0.000000
0.078790 0.787346 0.000000
0.078430 0.811174 0.000000
0.078049 0.834933 0.000000
0.077650 0.858630 0.000000
0.077233 0.882275 0.000000
0.076803 0.905874 0.000000
0.076362 0.929438 0.000000
0.075913 0.952974 0.000000
0.075458 0.976492 0.000000
0.075000 1.000000 0.000000
0.100000 0.000000 0.000000
0.100606 0.026153 0.000000
0.101209 0.052299 0.000000
0.101803 0.078430 0.000000
0.102387 0.104541 0.000000
0.102956 0.130623 0.000000
0.103507 0.156671 0.000000
0.104037 0.182678 0.000000
0.104541 0.208637 0.000000
0.105017 0.234543 0.000000
0.105463 0.260391 0.000000
0.105874 0.286174 0.000000
0.106250 0.311888 0.000000
0.106587 0.337529 0.000000
0.106883 0.363093 0.000000
0.107137 0.388576 0.000000
0.107347 0.413975 0.000000
0.107512 0.439289 0.000000
0.107630 0.464514 0.000000
0.107702 0.489649 0.000000
0.107725 0.514695 0.000000
0.107702 0.539649 0.000000
0.107630 0.564514 0.000000
0.107512 0.589289 0.000000
0.107347 0.613975 0.000000
0.107137 0.638576 0.000000
0.106883 0.663093 0.000000
0.106587 0.687529 0.000000
0.106250 0.711888 0.000000
0.105874 0.736174 0.000000
0.105463 0.760391 0.000000
0.105017 0.784543 0.000000
0.104541 0.808637 0.000000
0.104037 0.832678 0.000000
0.103507 0.856671 0.000000
0.102956 0.880623 0.000000
0.102387 0.904541 0.000000
0.101803 0.928430 0.000000
0.101209 0.952299 0.000000
0.100606 0.976153 0.000000
0.100000 1.000000 0.000000
0.125000 0.000000 0.000000
0.125751 0.025751 0.000000
0.126497 0.051497 0.000000
0.127233 0.077233 0.000000
0.127956 0.102956 0.000000
0.128661 0.128661 0.000000
0.129343 0.154343 0.000000
0.129999 0.179999 0.000000
0.130623 0.205623 0.000000
0.131213 0.231213 0.000000
0.131765 0.256765 0.000000
0.132275 0.282275 0.000000
0.132740 0.307740 0.000000
0.133157 0.333157 0.000000
0.133524 0.358524 0.000000
0.133839 0.383839 0.000000
0.134099 0.409099 0.000000
0.134303 0.434303 0.000000
0.134449 0.459449 0.000000
0.134538 0.484538 0.000000
0.134567 0.509567 0.000000
0.134538 0.534538 0.000000
0.134449 0.559449 0.000000
0.134303 0.584303 0.000000
0.134099 0.609099 0.000000
0.133839 0.633839 0.000000
0.133524 0.658524 0.000000
0.133157 0.683157 0.000000
0.132740 0.707740 0.000000
0.132275 0.732275 0.000000
0.131765 0.756765 0.000000
0.131213 0.781213 0.000000
0.130623 0.805623 0.000000
0.129999 0.829999 0.000000
0.129343 0.854343 0.000000
0.128661 0.878661 0.000000
0.127956 0.902956 0.000000
0.127233 0.927233 0.000000
0.126497 0.951497 0.000000
0.125751 0.975751 0.000000
0.125000 1.000000 0.000000
0.150000 0.000000 0.000000
0.150890 0.025307 0.000000
0.151775 0.050612 0.000000
0.152650 0.075913 0.000000
0.153507 0.101209 0.000000
0.154343 0.126497 0.000000
0.155153 0.151775 0.000000
0.155930 0.177043 0.000000
0.156671 0.202299 0.000000
0.157371 0.227540 0.000000
0.158025 0.252765 0.000000
0.158630 0.277974 0.000000
0.159182 0.303164 0.000000
0.159677 0.328335 0.000000
0.160113 0.353485 0.000000
0.160486 0.378613 0.000000
0.160794 0.403719 0.000000
0.161036 0.428803 0.000000
0.161210 0.453863 0.000000
0.161315 0.478899 0.000000
0.161350 0.503911 0.000000
0.161315 0.528899 0.000000
0.161210 0.553863 0.000000
0.161036 0.578803 0.000000
0.160794 0.603719 0.000000
0.160486 0.628613 0.000000
0.160113 0.653485 0.000000
0.159677 0.678335 0.000000
0.159182 0.703164 0.000000
0.158630 0.727974 0.000000
0.158025 0.752765 0.000000
0.157371 0.777540 0.000000
0.156671 0.802299 0.000000
0.155930 0.827043 0.000000
0.155153 0.851775 0.000000
0.154343 0.876497 0.000000
0.153507 0.901209 0.000000
0.152650 0.925913 0.000000
0.151775 0.950612 0.000000
0.150890 0.975307 0.000000
0.150000 1.000000 0.000000
0.175000 0.000000 0.000000
0.176025 0.024846 0.000000
0.177043 0.049693 0.000000
0.178049 0.074542 0.000000
0.179037 0.099394 0.000000
0.179999 0.124249 0.000000
0.180930 0.149110 0.000000
0.181825 0.173975 0.000000
0.182678 0.198847 0.000000
0.183483 0.223726 0.000000
0.184237 0.248613 0.000000
0.184933 0.273508 0.000000
0.185568 0.298413 0.000000
0.186138 0.323328 0.000000
0.186639 0.348252 0.000000
0.187068 0.373188 0.000000
0.187423 0.398135 0.000000
0.187702 0.423093 0.000000
0.187902 0.448063 0.000000
0.188022 0.473045 0.000000
0.188062 0.498039 0.000000
0.188022 0.523045 0.000000
0.187902 0.548063 0.000000
0.187702 0.573093 0.000000
0.187423 0.598135 0.000000
0.187068 0.623188 0.000000
0.186639 0.648252 0.000000
0.186138 0.673328 0.000000
0.185568 0.698413 0.000000
0.184933 0.723508 0.000000
0.184237 0.748613 0.000000
0.183483 0.773726 0.000000
0.182678 0.798847 0.000000
0.181825 0.823975 0.000000
0.180930 0.849110 0.000000
0.179999 0.874249 0.000000
0.179037 0.899394 0.000000
0.178049 0.924542 0.000000
0.177043 0.949693 0.000000
0.176025 0.974846 0.000000
0.175000 1.000000 0.000000
0.200000 0.000000 0.000000
0.201153 0.024394 0.000000
0.202299 0.048791 0.000000
0.203430 0.073197 0.000000
0.204541 0.097613 0.000000
0.205623 0.122044 0.000000
0.206671 0.146493 0.000000
0.207678 0.170963 0.000000
0.208637 0.195459 0.000000
0.209543 0.219983 0.000000
0.210391 0.244537 0.000000
0.211174 0.269126 0.000000
0.211888 0.293750 0.000000
0.212529 0.318413 0.000000
0.213093 0.343117 0.000000
0.213576 0.367863 0.000000
0.213975 0.392653 0.000000
0.214289 0.417488 0.000000
0.214514 0.442370 0.000000
0.214649 0.467298 0.000000
0.214695 0.492275 0.000000
0.214649 0.517298 0.000000
0.214514 0.542370 0.000000
0.214289 0.567488 0.000000
0.213975 0.592653 0.000000
0.213576 0.617863 0.000000
0.213093 0.643117 0.000000
0.212529 0.668413 0.000000
0.211888 0.693750 0.000000
0.211174 0.719126 0.000000
0.210391 0.744537 0.000000
0.209543 0.769983 0.000000
0.208637 0.795459 0.000000
0.207678 0.820963 0.000000
0.206671 0.846493 0.000000
0.205623 0.872044 0.000000
0.204541 0.897613 0.000000
0.203430 0.923197 0.000000
[...]
CELL_DATA 1600
SCALARS temperature FLOAT 1
LOOKUP_TABLE default
0.001666
0.005006
0.008348
0.011665
0.014930
0.018116
0.021197
0.024147
0.026940
0.029553
0.031966
0.034159
0.036112
0.037814
0.039252
0.040414
0.041296
0.041894
0.042206
0.042233
0.041981
0.041455
0.040665
0.039620
0.038334
0.036821
0.035096
0.033176
0.031078
0.028819
0.026419
0.023896
0.021268
0.018553
0.015771
0.012938
0.010071
0.007187
0.004302
0.001431
0.004969
0.014929
0.024894
0.034787
0.044527
0.054034
0.063229
0.072038
0.080384
0.088199
0.095420
0.101988
0.107850
0.112963
0.117289
0.120798
0.123473
0.125300
0.126274
0.126398
0.125685
0.124153
0.121826
0.118736
0.114920
0.110421
0.105281
0.099550
0.093282
0.086527
0.079341
0.071781
0.063901
0.055757
0.047404
0.038895
0.030281
0.021612
0.012937
0.004302
0.008183
0.024586
0.041000
0.057298
0.073350
0.089027
0.104202
0.118750
0.132551
0.145492
0.157467
0.168380
0.178145
0.186686
0.193941
0.199859
0.204407
0.207558
0.209303
0.209644
0.208597
0.206189
0.202458
0.197451
0.191228
0.183856
0.175406
0.165958
0.155596
0.144408
0.132484
0.119917
0.106801
0.093228
0.079290
0.065077
0.050678
0.036179
0.021661
0.007204
0.011258
0.033825
0.056409
0.078840
0.100946
0.122553
0.143489
0.163585
0.182680
0.200619
0.217257
0.232460
0.246109
0.258098
0.268336
0.276752
0.283289
0.287909
0.290591
0.291332
0.290147
0.287066
0.282135
0.275415
0.266981
0.256920
0.245328
0.232312
0.217985
0.202469
0.185889
0.168373
0.150052
0.131059
0.111523
0.091575
0.071341
0.050946
0.030510
0.010148
0.014153
0.042522
0.070915
0.099127
0.126949
0.154168
0.180576
0.205966
0.230136
0.252896
0.274065
0.293473
0.310968
0.326412
0.339688
0.350697
0.359359
0.365617
0.369437
0.370802
0.369721
0.366221
0.360350
0.352177
0.341784
0.329274
0.314763
0.298380
0.280266
0.260572
0.239455
0.217080
0.193615
0.169231
0.144100
0.118393
0.092280
0.065926
0.039494
0.013139
0.016839
0.050591
0.084376
0.117959
0.151102
0.183562
0.215098
0.245472
0.274451
0.301810
0.327335
0.350826
0.372096
0.390978
0.407325
0.421009
0.431924
0.439992
0.445155
0.447382
0.446667
0.443027
0.436507
0.427172
0.415111
0.400434
0.383269
0.363765
0.342085
0.318404
0.292912
0.265807
0.237294
0.207586
0.176894
0.145435
0.113423
0.081071
0.048584
0.016167
0.019303
0.057992
0.096721
0.135236
0.173272
0.210566
0.246852
0.281865
0.315346
0.347041
0.376709
0.404119
0.429055
0.451318
0.470731
0.487137
0.500404
0.510425
0.517116
0.520424
0.520325
0.516821
0.509942
0.499747
0.486321
0.469778
0.450251
0.427902
0.402910
0.375474
0.345811
0.314150
0.280735
0.245814
0.209645
0.172489
0.134609
0.096265
0.057714
0.019210
0.021546
0.064726
0.107953
0.150954
0.193451
0.235162
0.275803
0.315089
0.352740
0.388479
0.422039
0.453162
0.481607
0.507146
0.529571
0.548695
0.564359
0.576422
0.584776
0.589341
0.590068
0.586938
0.579963
0.569188
0.554690
0.536577
0.514986
0.490082
0.462058
0.431132
0.397542
0.361548
0.323427
0.283466
0.241967
0.199237
0.155588
0.111331
0.066778
0.022233
0.023581
0.070836
0.118137
0.165202
0.211743
0.257466
0.302072
0.345262
0.386739
0.426207
0.463378
0.497972
0.529723
0.558377
0.583698
0.605471
0.623505
0.637632
0.647712
0.653639
0.655334
0.652754
0.645892
0.634772
0.619457
0.600046
0.576672
0.549502
0.518736
0.484605
0.447368
0.407309
0.364736
0.319976
0.273368
0.225269
0.176037
0.126037
0.075635
0.025189
0.025433
0.076392
0.127390
0.178140
0.228345
0.277703
0.325905
0.372641
0.417601
0.460474
0.500954
0.538743
0.573554
0.605108
0.633146
0.657425
0.677725
0.693850
0.705634
0.712939
0.715659
0.713725
0.707106
0.695807
0.679872
0.659389
0.634482
0.605315
0.572092
0.535054
0.494475
0.450661
0.403948
0.354694
0.303282
0.250108
0.195578
0.140108
0.084119
0.028023
0.027134
0.081486
0.135864
0.189974
0.243513
0.296172
0.347634
0.397582
0.445693
0.491645
0.535120
0.575804
0.613388
0.647576
0.678087
0.704656
0.727037
0.745009
0.758378
0.766981
0.770686
0.769399
0.763065
0.751670
0.735240
0.713847
0.687608
0.656681
0.621271
0.581623
0.538026
0.490803
0.440311
0.386939
0.331104
0.273242
0.213803
0.153251
0.092053
0.030675
0.028715
0.086219
0.143723
0.200929
0.257525
0.313199
0.367626
0.420479
0.471428
0.520142
0.566290
0.609544
0.649584
0.686095
0.718781
0.747355
0.771553
0.791132
0.805877
0.815602
0.820155
0.819420
0.813321
0.801826
0.784946
0.762739
0.735314
0.702823
0.665470
0.623504
0.577221
0.526958
0.473093
0.416040
0.356242
0.294169
0.230309
0.165168
0.099256
0.033085
0.030208
0.090682
0.151119
0.211212
0.270643
0.329091
0.386224
0.441708
0.495202
0.546368
0.594864
0.640352
0.682502
0.720989
0.755499
0.785736
0.811419
0.832291
0.848121
0.858706
0.863880
0.863512
0.857511
0.845831
0.828471
0.805482
0.776962
0.743061
0.703982
0.659975
0.611343
0.558433
0.501639
0.441391
0.378155
0.312428
0.244727
0.175590
0.105564
0.035198
0.031638
0.094950
0.158174
0.220993
0.283077
0.344094
0.403705
0.461565
0.517326
0.570640
0.621157
0.668534
0.712430
0.752512
0.788461
0.819970
0.846753
0.868543
0.885100
0.896216
0.901715
0.901458
0.895348
0.883331
0.865403
0.841606
0.812038
0.776846
0.736232
0.690451
0.639808
0.584659
0.525406
0.462491
0.396395
0.327634
0.256746
0.184290
0.110838
0.036967
0.033020
0.099067
0.164961
0.230370
0.294949
0.358353
0.420229
0.480224
0.537981
0.593141
0.645350
0.694258
0.739518
0.780796
0.817769
0.850130
0.877590
0.899882
0.916769
0.928040
0.933521
0.933074
0.926603
0.914056
0.895428
0.870766
0.840166
0.803780
0.761810
0.714513
0.662200
0.605228
0.544006
0.478981
0.410642
0.339512
0.266142
0.191102
0.114977
0.038358
0.034356
0.103040
0.171492
0.239357
0.306276
0.371884
0.435815
0.497703
0.557179
0.613878
0.667440
0.717511
0.763745
0.805806
0.843376
0.876151
0.903850
0.926214
0.943013
0.954047
0.959150
0.958196
0.951097
0.937812
0.918344
0.892747
0.861125
0.823634
0.780483
0.731932
0.678291
0.619922
0.557231
0.490669
0.420724
0.347916
0.272797
0.195938
0.117924
0.039351
0.035634
0.106834
0.177709
0.247879
0.316961
0.384571
0.450327
0.513847
0.574752
0.632669
0.687235
0.738095
0.784904
0.827333
0.865071
0.897828
0.925333
0.947346
0.963652
0.974068
0.978449
0.976685
0.968709
0.954493
0.934059
0.907474
0.874853
0.836362
0.792215
0.742677
0.688060
0.628723
0.565070
0.497545
0.426628
0.352833
0.276698
0.198787
0.119673
0.039945
0.036831
0.110378
0.183492
0.255766
0.326793
0.396163
0.463478
0.528340
0.590358
0.649155
0.704364
0.755631
0.802618
0.845008
0.882503
0.914829
0.941738
0.963010
0.978455
0.987917
0.991275
0.988447
0.979388
0.964096
0.942613
0.915025
0.881462
0.842101
0.797165
0.746924
0.691690
0.631817
0.567701
0.499775
0.428505
0.354388
0.277947
0.199720
0.120266
0.040152
0.037908
0.113560
0.188660
0.262773
0.335462
0.406296
0.474856
0.540730
0.603516
0.662832
0.718311
0.769604
0.816386
0.858351
0.895222
0.926748
0.952706
0.972905
0.987186
0.995424
0.997531
0.993454
0.983180
0.966733
0.944182
0.915633
0.881233
0.841175
0.795689
0.745047
0.689559
0.629575
0.565479
0.497688
0.426648
0.352833
0.276740
0.198884
0.119791
0.040001
0.038820
0.116242
0.192990
0.268594
0.342591
0.414527
0.483962
0.550472
0.613648
0.673104
0.728475
0.779423
0.825635
0.866825
0.902740
0.933154
0.957877
0.976749
0.989648
0.996482
0.997199
0.991781
0.980247
0.962652
0.939089
0.909689
0.874617
0.834078
0.788309
0.737584
0.682211
0.622530
0.558909
0.491748
0.421469
0.348517
0.273360
0.196480
0.118370
0.039535
0.039516
0.118275
0.196233
0.272891
0.347761
0.420368
0.490254
0.556981
0.620140
0.679344
0.734234
0.784482
0.829795
0.869908
0.904595
0.933661
0.956947
0.974332
0.985726
0.991078
0.990370
0.983619
0.970877
0.952229
0.927794
0.897723
0.862200
0.821438
0.775682
0.725207
0.670312
0.611326
0.548602
0.482514
0.413462
0.341860
0.268141
0.192751
0.116149
0.038802
0.039944
0.119503
0.198141
0.275331
0.350560
0.423340
0.493198
0.559689
0.622404
0.680957
0.735002
0.784227
0.828354
0.867148
0.900408
0.927971
0.949713
0.965547
0.975419
0.979315
0.977251
0.969277
0.955475
0.935958
0.910866
0.880371
0.844669
0.803981
0.758556
0.708664
0.654598
0.596672
0.535219
0.470592
0.403162
0.333313
0.261442
0.187960
0.113288
0.037854
0.040055
0.119787
0.198486
0.275603
0.350613
0.423012
0.492321
0.558097
0.619928
0.677441
0.730300
0.778211
0.820920
0.858215
0.889923
0.915915
0.936096
0.950413
0.958846
0.961412
0.958158
0.949164
0.934535
0.914409
0.888944
0.858323
0.822754
0.782463
0.737696
0.688718
0.635811
0.579274
0.519423
0.456583
0.391097
0.323321
0.253616
0.182361
0.109940
0.036743
0.039812
0.119011
0.197080
0.273460
0.347617
0.419041
0.487257
0.551821
0.612332
0.668428
0.719788
0.766138
0.807247
0.842927
0.873033
0.897462
0.916150
0.929071
0.936233
0.937680
0.933484
0.923746
0.908594
0.888177
0.862669
0.832261
0.797164
0.757604
0.713823
0.666077
0.614638
0.559786
0.501814
0.441028
0.377742
0.312282
0.244983
0.176186
0.106244
0.035516
0.039184
0.117092
0.193796
0.268734
0.341374
0.411210
0.477773
0.540631
0.599394
0.653717
0.703298
0.747882
0.787259
0.821265
0.849778
0.872718
0.890047
0.901758
0.907884
0.908485
0.903653
0.893502
0.878173
0.857824
0.832633
0.802796
0.768520
0.730028
0.687554
0.641343
0.591650
0.538740
0.482885
0.424368
0.363481
0.300521
0.235795
0.169618
0.102314
0.034210
0.038161
0.113997
0.188579
0.261357
0.331807
0.399440
0.463798
0.524468
0.581076
0.633297
0.680849
0.723495
0.761048
0.793362
0.820335
0.841906
0.858051
0.868782
0.874144
0.874210
0.869077
0.858870
0.843731
0.823822
0.799318
0.770411
0.737303
0.700207
0.659345
0.614948
0.567256
0.516516
0.462980
0.406912
0.348579
0.288257
0.226228
0.162784
0.098223
0.032851
0.036746
0.109737
0.181454
0.251366
0.318974
0.383806
0.445429
0.503453
0.557525
0.607340
0.652639
0.693205
0.728866
0.759494
0.785002
0.805341
0.820496
0.830489
0.835369
0.835212
0.830119
0.820209
0.805623
0.786517
0.763058
0.735428
0.703816
0.668424
0.629459
0.587136
0.541678
0.493313
0.442276
0.388810
0.333164
0.275593
0.216362
0.155739
0.094006
0.031449
0.034959
0.104372
0.172521
0.238906
0.303056
0.364531
0.422926
0.477878
0.529063
0.576196
0.619039
0.657396
0.691108
0.720061
0.744177
0.763414
0.777761
0.787241
0.791901
0.791812
0.787068
0.777782
0.764082
0.746111
0.724025
0.697988
0.668176
0.634772
0.597965
0.557956
0.514946
0.469148
0.420779
0.370062
0.317230
0.262522
0.206186
0.148477
0.089658
0.030003
0.032834
0.098008
0.161955
0.224214
0.284354
0.341970
0.396695
0.448193
0.496170
0.540367
0.580567
0.616588
0.648290
0.675565
0.698340
0.716575
0.730259
0.739409
0.744063
0.744283
0.740150
0.731761
0.719229
0.702678
0.682245
0.658078
0.630330
0.599165
0.564755
0.527278
0.486919
0.443872
0.398337
0.350522
0.300645
0.248928
0.195608
0.140925
0.085135
0.028497
0.030420
0.090785
0.149985
0.207607
0.263262
0.316589
0.367257
0.414967
0.459452
0.500482
0.537858
0.571417
0.601029
0.626593
0.648040
0.665327
0.678437
0.687376
0.692173
0.692873
0.689540
0.682252
0.671101
0.656191
0.637636
0.615560
0.590096
0.561385
0.529580
0.494837
0.457321
0.417209
0.374685
0.329941
0.283181
0.234614
0.184465
0.132967
0.080363
0.026908
0.027771
0.082866
0.136881
0.189454
0.240241
0.288925
0.335218
0.378856
0.419603
0.457255
0.491636
0.522597
0.550017
0.573803
0.593885
0.610217
0.622773
0.631549
0.636557
0.637825
0.635399
0.629335
0.619700
0.606576
0.590054
0.570232
0.547221
0.521139
0.492115
0.460286
0.425797
0.388806
0.349481
0.308000
0.264549
0.219331
0.172558
0.124454
0.075254
0.025205
0.024947
0.074431
0.122935
0.170148
0.215778
0.259552
0.301222
0.340560
0.377363
0.411451
0.442671
0.470889
0.495993
0.517894
0.536525
0.551833
0.563785
0.572365
0.577570
0.579410
0.577910
0.573104
0.565037
0.553767
0.539361
0.521892
0.501447
0.478123
0.452023
0.423264
0.391974
0.358292
0.322365
0.284358
0.244446
0.202817
0.159673
0.115227
0.069708
0.023354
0.022007
0.065653
0.108432
0.150082
0.190360
0.229038
0.265906
0.300773
0.333466
0.363831
0.391734
0.417058
0.439702
0.459582
0.476629
0.490791
0.502024
0.510303
0.515612
0.517945
0.517305
0.513709
0.507180
0.497756
0.485476
0.470393
0.452572
0.432085
0.409015
0.383459
0.355525
0.325331
0.293010
0.258710
0.222591
0.184828
0.145610
0.105140
0.063635
0.021326
0.019005
0.056695
0.093636
0.129615
0.164433
0.197905
0.229859
0.260136
0.288595
0.315106
0.339553
0.361836
0.381863
0.399560
0.414859
0.427706
0.438054
0.445868
0.451122
0.453797
0.453883
0.451377
0.446286
0.438625
0.428416
0.415692
0.400497
0.382882
0.362912
0.340661
0.316218
0.289685
0.261177
0.230824
0.198771
0.165177
0.130217
0.094079
0.056967
0.019097
0.015987
0.047691
0.078767
0.109047
0.138372
0.166595
0.193580
0.219199
0.243338
0.265891
0.286761
0.305864
0.323121
0.338463
0.351829
0.363167
0.372428
0.379572
0.384567
0.387384
0.388004
0.386412
0.382600
0.376567
0.368321
0.357879
0.345266
0.330515
0.313673
0.294799
0.273962
0.251247
0.226749
0.200582
0.172872
0.143762
0.113407
0.081978
0.049661
0.016652
0.012988
0.038744
0.063992
0.088604
0.112458
0.135441
0.157448
0.178380
0.198149
0.216669
0.233863
0.249663
0.264003
0.276824
0.288071
0.297695
0.305652
0.311903
0.316410
0.319144
0.320077
0.319188
0.316461
0.311884
0.305456
0.297180
0.287066
0.275138
0.261426
0.245971
0.228829
0.210065
0.189758
0.168002
0.144904
0.120584
0.095178
0.068834
0.041714
0.013990
0.010029
0.029916
0.049413
0.068427
0.086868
0.104654
0.121706
0.137953
0.153327
0.167764
0.181207
0.193601
0.204895
0.215041
0.223994
0.231713
0.238157
0.243293
0.247086
0.249505
0.250525
0.250120
0.248272
0.244966
0.240193
0.233948
0.226235
0.217064
0.206458
0.194443
0.181058
0.166355
0.150394
0.133248
0.115004
0.095758
0.075620
0.054712
0.033166
0.011126
0.007117
0.021231
0.035070
0.048570
0.061670
0.074315
0.086453
0.098032
0.109006
0.119333
0.128970
0.137878
0.146021
0.153364
0.159874
0.165519
0.170268
0.174092
0.176966
0.178863
0.179761
0.179639
0.178479
0.176267
0.172991
0.168644
0.163228
0.156745
0.149208
0.140635
0.131051
0.120492
0.109001
0.096630
0.083442
0.069510
0.054914
0.039744
0.024098
0.008085
0.004250
0.012677
0.020941
0.029005
0.036833
0.044394
0.051657
0.058591
0.065171
0.071372
0.077167
0.082534
0.087451
0.091896
0.095849
0.099291
0.102200
0.104560
0.106353
0.107563
0.108173
0.108171
0.107542
0.106279
0.104371
0.101812
0.098602
0.094743
0.090238
0.085100
0.079341
0.072983
0.066052
0.058580
0.050603
0.042167
0.033322
0.024122
0.014629
0.004908
0.001413
0.004215
0.006963
0.009644
0.012248
0.014763
0.017181
0.019490
0.021682
0.023750
0.025683
0.027476
0.029121
0.030609
0.031934
0.033091
0.034071
0.034869
0.035479
0.035894
0.036110
0.036121
0.035923
0.035513
0.034887
0.034042
0.032980
0.031699
0.030200
0.028488
0.026568
0.024445
0.022128
0.019629
0.016959
0.014134
0.011171
0.008088
0.004905
0.001646
