# vtk DataFile Version 2.0
TITLE = "Quad data"
ASCII
DATASET STRUCTURED_GRID
DIMENSIONS 21 21 1
POINTS 441 FLOAT
0.000000 0.000000 0.000000
0.000000 0.057822 0.000000
0.000000 0.115451 0.000000
0.000000 0.172700 0.000000
0.000000 0.229389 0.000000
0.000000 0.285355 0.000000
0.000000 0.340451 0.000000
0.000000 0.394550 0.000000
0.000000 0.447553 0.000000
0.000000 0.499384 0.000000
0.000000 0.550000 0.000000
0.000000 0.599384 0.000000
0.000000 0.647553 0.000000
0.000000 0.694550 0.000000
0.000000 0.740451 0.000000
0.000000 0.785355 0.000000
0.000000 0.829389 0.000000
0.000000 0.872700 0.000000
0.000000 0.915451 0.000000
0.000000 0.957822 0.000000
0.000000 1.000000 0.000000
0.050000 0.000000 0.000000
0.051224 0.056969 0.000000
0.052417 0.113767 0.000000
0.053551 0.170225 0.000000
0.054597 0.226186 0.000000
0.055531 0.281502 0.000000
0.056328 0.336042 0.000000
0.056969 0.389695 0.000000
0.057439 0.442370 0.000000
0.057725 0.494002 0.000000
0.057822 0.544550 0.000000
0.057725 0.594002 0.000000
0.057439 0.642370 0.000000
0.056969 0.689695 0.000000
0.056328 0.736042 0.000000
0.055531 0.781502 0.000000
0.054597 0.826186 0.000000
0.053551 0.870225 0.000000
0.052417 0.913767 0.000000
0.051224 0.956969 0.000000
0.050000 1.000000 0.000000
0.100000 0.000000 0.000000
0.102417 0.054597 0.000000
0.104775 0.109082 0.000000
0.107015 0.163342 0.000000
0.109082 0.217275 0.000000
0.110925 0.270781 0.000000
0.112500 0.323776 0.000000
0.113767 0.376186 0.000000
0.114695 0.427951 0.000000
0.115261 0.479027 0.000000
0.115451 0.529389 0.000000
0.115261 0.579027 0.000000
0.114695 0.627951 0.000000
0.113767 0.676186 0.000000
0.112500 0.723776 0.000000
0.110925 0.770781 0.000000
0.109082 0.817275 0.000000
0.107015 0.863342 0.000000
0.104775 0.909082 0.000000
0.102417 0.954597 0.000000
0.100000 1.000000 0.000000
0.150000 0.000000 0.000000
0.153551 0.051224 0.000000
0.157015 0.102417 0.000000
0.160305 0.153551 0.000000
0.163342 0.204597 0.000000
0.166051 0.255531 0.000000
0.168364 0.306328 0.000000
0.170225 0.356969 0.000000
0.171589 0.407439 0.000000
0.172420 0.457725 0.000000
0.172700 0.507822 0.000000
0.172420 0.557725 0.000000
0.171589 0.607439 0.000000
0.170225 0.656969 0.000000
0.168364 0.706328 0.000000
0.166051 0.755531 0.000000
0.163342 0.804597 0.000000
0.160305 0.853551 0.000000
0.157015 0.902417 0.000000
0.153551 0.951224 0.000000
0.150000 1.000000 0.000000
0.200000 0.000000 0.000000
0.204597 0.047583 0.000000
0.209082 0.095225 0.000000
0.213342 0.142985 0.000000
0.217275 0.190918 0.000000
0.220781 0.239075 0.000000
0.223776 0.287500 0.000000
0.226186 0.336233 0.000000
0.227951 0.385305 0.000000
0.229027 0.434739 0.000000
0.229389 0.484549 0.000000
0.229027 0.534739 0.000000
0.227951 0.585305 0.000000
0.226186 0.636233 0.000000
0.223776 0.687500 0.000000
0.220781 0.739075 0.000000
0.217275 0.790918 0.000000
0.213342 0.842985 0.000000
0.209082 0.895225 0.000000
0.204597 0.947583 0.000000
0.200000 1.000000 0.000000
0.250000 0.000000 0.000000
0.255531 0.044469 0.000000
0.260925 0.089075 0.000000
0.266051 0.133949 0.000000
0.270781 0.179219 0.000000
0.275000 0.225000 0.000000
0.278603 0.271397 0.000000
0.281502 0.318498 0.000000
0.283625 0.366375 0.000000
0.284920 0.415080 0.000000
0.285355 0.464645 0.000000
0.284920 0.515080 0.000000
0.283625 0.566375 0.000000
0.281502 0.618498 0.000000
0.278603 0.671397 0.000000
0.275000 0.725000 0.000000
0.270781 0.779219 0.000000
0.266051 0.833949 0.000000
0.260925 0.889075 0.000000
0.255531 0.944469 0.000000
0.250000 1.000000 0.000000
0.300000 0.000000 0.000000
0.306328 0.042561 0.000000
0.312500 0.085305 0.000000
0.318364 0.128411 0.000000
0.323776 0.172049 0.000000
0.328603 0.216375 0.000000
0.332725 0.261529 0.000000
0.336042 0.307630 0.000000
0.338471 0.354775 0.000000
0.339953 0.403033 0.000000
0.340451 0.452447 0.000000
0.339953 0.503033 0.000000
0.338471 0.554775 0.000000
0.336042 0.607630 0.000000
0.332725 0.661529 0.000000
0.328603 0.716375 0.000000
0.323776 0.772049 0.000000
0.318364 0.828411 0.000000
0.312500 0.885305 0.000000
0.306328 0.942561 0.000000
0.300000 1.000000 0.000000
0.350000 0.000000 0.000000
0.356969 0.042275 0.000000
0.363767 0.084739 0.000000
0.370225 0.127580 0.000000
0.376186 0.170973 0.000000
0.381502 0.215080 0.000000
0.386042 0.260047 0.000000
0.389695 0.305998 0.000000
0.392370 0.353033 0.000000
0.394002 0.401224 0.000000
0.394550 0.450616 0.000000
0.394002 0.501224 0.000000
0.392370 0.553033 0.000000
0.389695 0.605998 0.000000
0.386042 0.660047 0.000000
0.381502 0.715080 0.000000
0.376186 0.770973 0.000000
0.370225 0.827580 0.000000
0.363767 0.884739 0.000000
0.356969 0.942275 0.000000
0.350000 1.000000 0.000000
0.400000 0.000000 0.000000
0.407439 0.043672 0.000000
0.414695 0.087500 0.000000
0.421589 0.131636 0.000000
0.427951 0.176224 0.000000
0.433625 0.221397 0.000000
0.438471 0.267275 0.000000
0.442370 0.313958 0.000000
0.445225 0.361529 0.000000
0.446967 0.410047 0.000000
0.447553 0.459549 0.000000
0.446967 0.510047 0.000000
0.445225 0.561529 0.000000
0.442370 0.613958 0.000000
0.438471 0.667275 0.000000
0.433625 0.721397 0.000000
0.427951 0.776224 0.000000
0.421589 0.831636 0.000000
0.414695 0.887500 0.000000
0.407439 0.943672 0.000000
0.400000 1.000000 0.000000
0.450000 0.000000 0.000000
0.457725 0.046449 0.000000
0.465261 0.092985 0.000000
0.472420 0.139695 0.000000
0.479027 0.186658 0.000000
0.484920 0.233949 0.000000
0.489953 0.281636 0.000000
0.494002 0.329775 0.000000
0.496967 0.378411 0.000000
0.498776 0.427580 0.000000
0.499384 0.477300 0.000000
0.498776 0.527580 0.000000
0.496967 0.578411 0.000000
0.494002 0.629775 0.000000
0.489953 0.681636 0.000000
0.484920 0.733949 0.000000
0.479027 0.786658 0.000000
0.472420 0.839695 0.000000
0.465261 0.892985 0.000000
0.457725 0.946449 0.000000
0.450000 1.000000 0.000000
0.500000 0.000000 0.000000
0.507822 0.050000 0.000000
0.515451 0.100000 0.000000
0.522700 0.150000 0.000000
0.529389 0.200000 0.000000
0.535355 0.250000 0.000000
0.540451 0.300000 0.000000
0.544550 0.350000 0.000000
0.547553 0.400000 0.000000
0.549384 0.450000 0.000000
0.550000 0.500000 0.000000
0.549384 0.550000 0.000000
0.547553 0.600000 0.000000
0.544550 0.650000 0.000000
0.540451 0.700000 0.000000
0.535355 0.750000 0.000000
0.529389 0.800000 0.000000
0.522700 0.850000 0.000000
0.515451 0.900000 0.000000
0.507822 0.950000 0.000000
0.500000 1.000000 0.000000
0.550000 0.000000 0.000000
0.557725 0.053551 0.000000
0.565261 0.107015 0.000000
0.572420 0.160305 0.000000
0.579027 0.213342 0.000000
0.584920 0.266051 0.000000
0.589953 0.318364 0.000000
0.594002 0.370225 0.000000
0.596967 0.421589 0.000000
0.598776 0.472420 0.000000
0.599384 0.522700 0.000000
0.598776 0.572420 0.000000
0.596967 0.621589 0.000000
0.594002 0.670225 0.000000
0.589953 0.718364 0.000000
0.584920 0.766051 0.000000
0.579027 0.813342 0.000000
0.572420 0.860305 0.000000
0.565261 0.907015 0.000000
0.557725 0.953551 0.000000
0.550000 1.000000 0.000000
0.600000 0.000000 0.000000
0.607439 0.056328 0.000000
0.614695 0.112500 0.000000
0.621589 0.168364 0.000000
0.627951 0.223776 0.000000
0.633625 0.278603 0.000000
0.638471 0.332725 0.000000
0.642370 0.386042 0.000000
0.645225 0.438471 0.000000
0.646967 0.489953 0.000000
0.647553 0.540451 0.000000
0.646967 0.589953 0.000000
0.645225 0.638471 0.000000
0.642370 0.686042 0.000000
0.638471 0.732725 0.000000
0.633625 0.778603 0.000000
0.627951 0.823776 0.000000
0.621589 0.868364 0.000000
0.614695 0.912500 0.000000
0.607439 0.956328 0.000000
0.600000 1.000000 0.000000
0.650000 0.000000 0.000000
0.656969 0.057725 0.000000
0.663767 0.115261 0.000000
0.670225 0.172420 0.000000
0.676186 0.229027 0.000000
0.681502 0.284920 0.000000
0.686042 0.339953 0.000000
0.689695 0.394002 0.000000
0.692370 0.446967 0.000000
0.694002 0.498776 0.000000
0.694550 0.549384 0.000000
0.694002 0.598776 0.000000
0.692370 0.646967 0.000000
0.689695 0.694002 0.000000
0.686042 0.739953 0.000000
0.681502 0.784920 0.000000
0.676186 0.829027 0.000000
0.670225 0.872420 0.000000
0.663767 0.915261 0.000000
0.656969 0.957725 0.000000
0.650000 1.000000 0.000000
0.700000 0.000000 0.000000
0.706328 0.057439 0.000000
0.712500 0.114695 0.000000
0.718364 0.171589 0.000000
0.723776 0.227951 0.000000
0.728603 0.283625 0.000000
0.732725 0.338471 0.000000
0.736042 0.392370 0.000000
0.738471 0.445225 0.000000
0.739953 0.496967 0.000000
0.740451 0.547553 0.000000
0.739953 0.596967 0.000000
0.738471 0.645225 0.000000
0.736042 0.692370 0.000000
0.732725 0.738471 0.000000
0.728603 0.783625 0.000000
0.723776 0.827951 0.000000
0.718364 0.871589 0.000000
0.712500 0.914695 0.000000
0.706328 0.957439 0.000000
0.700000 1.000000 0.000000
0.750000 0.000000 0.000000
0.755531 0.055531 0.000000
0.760925 0.110925 0.000000
0.766051 0.166051 0.000000
0.770781 0.220781 0.000000
0.775000 0.275000 0.000000
0.778603 0.328603 0.000000
0.781502 0.381502 0.000000
0.783625 0.433625 0.000000
0.784920 0.484920 0.000000
0.785355 0.535355 0.000000
0.784920 0.584920 0.000000
0.783625 0.633625 0.000000
0.781502 0.681502 0.000000
0.778603 0.728603 0.000000
0.775000 0.775000 0.000000
0.770781 0.820781 0.000000
0.766051 0.866051 0.000000
0.760925 0.910925 0.000000
0.755531 0.955531 0.000000
0.750000 1.000000 0.000000
0.800000 0.000000 0.000000
0.804597 0.052417 0.000000
0.809082 0.104775 0.000000
0.813342 0.157015 0.000000
0.817275 0.209082 0.000000
0.820781 0.260925 0.000000
0.823776 0.312500 0.000000
0.826186 0.363767 0.000000
0.827951 0.414695 0.000000
0.829027 0.465261 0.000000
0.829389 0.515451 0.000000
0.829027 0.565261 0.000000
0.827951 0.614695 0.000000
0.826186 0.663767 0.000000
0.823776 0.712500 0.000000
0.820781 0.760925 0.000000
0.817275 0.809082 0.000000
0.813342 0.857015 0.000000
0.809082 0.904775 0.000000
0.804597 0.952417 0.000000
0.800000 1.000000 0.000000
0.850000 0.000000 0.000000
0.853551 0.048776 0.000000
0.857015 0.097583 0.000000
0.860305 0.146449 0.000000
0.863342 0.195403 0.000000
0.866051 0.244469 0.000000
0.868364 0.293672 0.000000
0.870225 0.343031 0.000000
0.871589 0.392561 0.000000
0.872420 0.442275 0.000000
0.872700 0.492178 0.000000
0.872420 0.542275 0.000000
0.871589 0.592561 0.000000
0.870225 0.643031 0.000000
0.868364 0.693672 0.000000
0.866051 0.744469 0.000000
0.863342 0.795403 0.000000
0.860305 0.846449 0.000000
0.857015 0.897583 0.000000
0.853551 0.948776 0.000000
0.850000 1.000000 0.000000
0.900000 0.000000 0.000000
0.902417 0.045403 0.000000
0.904775 0.090918 0.000000
0.907015 0.136658 0.000000
0.909082 0.182725 0.000000
0.910925 0.229219 0.000000
0.912500 0.276224 0.000000
0.913767 0.323814 0.000000
0.914695 0.372049 0.000000
0.915261 0.420973 0.000000
0.915451 0.470611 0.000000
0.915261 0.520973 0.000000
0.914695 0.572049 0.000000
0.913767 0.623814 0.000000
0.912500 0.676224 0.000000
0.910925 0.729219 0.000000
0.909082 0.782725 0.000000
0.907015 0.836658 0.000000
0.904775 0.890918 0.000000
0.902417 0.945403 0.000000
0.900000 1.000000 0.000000
0.950000 0.000000 0.000000
0.951224 0.043031 0.000000
0.952417 0.086233 0.000000
0.953551 0.129775 0.000000
0.954597 0.173814 0.000000
0.955531 0.218498 0.000000
0.956328 0.263958 0.000000
0.956969 0.310305 0.000000
0.957439 0.357630 0.000000
0.957725 0.405998 0.000000
0.957822 0.455450 0.000000
0.957725 0.505998 0.000000
0.957439 0.557630 0.000000
0.956969 0.610305 0.000000
0.956328 0.663958 0.000000
0.955531 0.718498 0.000000
0.954597 0.773814 0.000000
0.953551 0.829775 0.000000
0.952417 0.886233 0.000000
0.951224 0.943031 0.000000
0.950000 1.000000 0.000000
1.000000 0.000000 0.000000
1.000000 0.042178 0.000000
1.000000 0.084549 0.000000
1.000000 0.127300 0.000000
1.000000 0.170611 0.000000
1.000000 0.214645 0.000000
1.000000 0.259549 0.000000
1.000000 0.305450 0.000000
1.000000 0.352447 0.000000
1.000000 0.400616 0.000000
1.000000 0.450000 0.000000
1.000000 0.500616 0.000000
1.000000 0.552447 0.000000
1.000000 0.605450 0.000000
1.000000 0.659549 0.000000
1.000000 0.714645 0.000000
1.000000 0.770611 0.000000
1.000000 0.827300 0.000000
1.000000 0.884549 0.000000
1.000000 0.942178 0.000000
1.000000 1.000000 0.000000
CELL_DATA 400
SCALARS temperature FLOAT 1
LOOKUP_TABLE default
0.007131
0.021469
0.035672
0.049167
0.061398
0.071864
0.080158
0.085994
0.089216
0.089803
0.087859
0.083592
0.077288
0.069287
0.059955
0.049661
0.038757
0.027565
0.016366
0.005399
0.020625
0.062117
0.103316
0.142648
0.178563
0.209642
0.234691
0.252819
0.263480
0.266494
0.262027
0.250555
0.232809
0.209703
0.182266
0.151577
0.118706
0.084665
0.050374
0.016637
0.032077
0.096666
0.161048
0.223016
0.280341
0.330900
0.372811
0.404535
0.424967
0.433490
0.429988
0.414835
0.388845
0.353213
0.309424
0.259162
0.204218
0.146396
0.087435
0.028940
0.040900
0.123326
0.205829
0.285987
0.361264
0.429124
0.487168
0.533247
0.565584
0.582876
0.584368
0.569904
0.539943
0.495548
0.438331
0.370370
0.294099
0.212175
0.127338
0.042267
0.047358
0.142820
0.238659
0.332524
0.421859
0.503985
0.576196
0.635870
0.680598
0.708323
0.717475
0.707101
0.676971
0.627653
0.560541
0.477826
0.382398
0.277699
0.167523
0.055777
0.052387
0.157902
0.263868
0.368090
0.468113
0.561259
0.644693
0.715505
0.770836
0.808024
0.824782
0.819386
0.790863
0.739158
0.665256
0.571223
0.460171
0.336110
0.203718
0.068028
0.057166
0.172047
0.287017
0.399925
0.508353
0.609637
0.700900
0.779124
0.841251
0.884327
0.905686
0.903160
0.875312
0.821648
0.742809
0.640674
0.518377
0.380190
0.231291
0.077429
0.062576
0.187852
0.312253
0.433430
0.548832
0.655730
0.751246
0.832412
0.896257
0.939934
0.960873
0.956979
0.926842
0.869952
0.786885
0.679430
0.550626
0.404685
0.246788
0.082775
0.068788
0.205794
0.340267
0.469394
0.590316
0.700171
0.796139
0.875489
0.935653
0.974305
0.989465
0.979638
0.943952
0.882315
0.795549
0.685486
0.555002
0.407965
0.249079
0.083654
0.075128
0.223859
0.367770
0.503401
0.627503
0.737113
0.829603
0.902718
0.954599
0.983798
0.989303
0.970575
0.927600
0.860951
0.771851
0.662217
0.534681
0.392552
0.239736
0.080589
0.080271
0.238182
0.388659
0.527600
0.651440
0.757258
0.842816
0.906553
0.947529
0.965353
0.960112
0.932298
0.882774
0.812753
0.723794
0.617819
0.497121
0.364351
0.222504
0.074852
0.082700
0.244421
0.396320
0.533877
0.653441
0.752334
0.828859
0.882229
0.912417
0.920001
0.905992
0.871697
0.818603
0.748319
0.662545
0.563068
0.451781
0.330705
0.202009
0.068019
0.081243
0.239311
0.386026
0.516858
0.628370
0.718290
0.785475
0.829773
0.851816
0.852793
0.834237
0.797845
0.745347
0.678427
0.598696
0.507696
0.406930
0.297904
0.182182
0.061424
0.075484
0.221802
0.356515
0.475557
0.575973
0.655963
0.714805
0.752684
0.770473
0.769498
0.751326
0.717588
0.669868
0.609640
0.538246
0.456918
0.366820
0.269104
0.164972
0.055729
0.065913
0.193392
0.310320
0.413448
0.500475
0.570053
0.621694
0.655616
0.672550
0.673547
0.659807
0.632548
0.592924
0.541986
0.480689
0.409922
0.330561
0.243530
0.149861
0.050753
0.053753
0.157626
0.252920
0.337347
0.409298
0.467821
0.512534
0.543510
0.561139
0.565995
0.558721
0.539955
0.510289
0.470256
0.420364
0.361137
0.293186
0.217267
0.134343
0.045632
0.040551
0.118929
0.191053
0.255518
0.311328
0.357865
0.394813
0.422087
0.439750
0.447927
0.446750
0.436321
0.416709
0.387967
0.350180
0.303527
0.248362
0.185274
0.115154
0.039234
0.027668
0.081191
0.130659
0.175333
0.214681
0.248343
0.276085
0.297753
0.313220
0.322349
0.324963
0.320840
0.309720
0.291348
0.265524
0.232175
0.191435
0.143712
0.089752
0.030664
0.015868
0.046591
0.075106
0.101089
0.124307
0.144584
0.161783
0.175770
0.186398
0.193480
0.196781
0.196021
0.190889
0.181074
0.166314
0.146450
0.121486
0.091655
0.057454
0.019670
0.005143
0.015107
0.024377
0.032869
0.040519
0.047278
0.053100
0.057935
0.061721
0.064379
0.065806
0.065882
0.064474
0.061447
0.056684
0.050109
0.041708
0.031552
0.019819
0.006793
