# vtk DataFile Version 2.0
TITLE = "Quad data"
ASCII
DATASET STRUCTURED_GRID
DIMENSIONS 9 33 1
POINTS 297 FLOAT
0.000000 2.000000 0.000000
0.000000 2.125000 0.000000
0.000000 2.250000 0.000000
0.000000 2.375000 0.000000
0.000000 2.500000 0.000000
0.000000 2.625000 0.000000
0.000000 2.750000 0.000000
0.000000 2.875000 0.000000
0.000000 3.000000 0.000000
0.125000 2.000000 0.000000
0.125318 2.124380 0.000000
0.125604 2.248860 0.000000
0.125824 2.373510 0.000000
0.125939 2.498400 0.000000
0.125910 2.623520 0.000000
0.125724 2.748870 0.000000
0.125402 2.874390 0.000000
0.125000 3.000000 0.000000
0.250000 2.000000 0.000000
0.250660 2.123670 0.000000
0.251269 2.247540 0.000000
0.251754 2.371800 0.000000
0.252020 2.496540 0.000000
0.251981 2.621810 0.000000
0.251592 2.747570 0.000000
0.250889 2.873690 0.000000
0.250000 3.000000 0.000000
0.375000 2.000000 0.000000
0.376053 2.122750 0.000000
0.377058 2.245850 0.000000
0.377899 2.369590 0.000000
0.378409 2.494150 0.000000
0.378409 2.619610 0.000000
0.377785 2.745880 0.000000
0.376571 2.872780 0.000000
0.375000 3.000000 0.000000
0.500000 2.000000 0.000000
0.501501 2.121490 0.000000
0.503009 2.243520 0.000000
0.504376 2.366540 0.000000
0.505315 2.490850 0.000000
0.505475 2.616550 0.000000
0.504589 2.743540 0.000000
0.502636 2.871520 0.000000
0.500000 3.000000 0.000000
0.625000 2.000000 0.000000
0.626941 2.119660 0.000000
0.629092 2.240150 0.000000
0.631281 2.362170 0.000000
0.633003 2.486110 0.000000
0.633608 2.612140 0.000000
0.632496 2.740140 0.000000
0.629437 2.869680 0.000000
0.625000 3.000000 0.000000
0.750000 2.000000 0.000000
0.752146 2.116920 0.000000
0.755113 2.235200 0.000000
0.758625 2.355770 0.000000
0.761802 2.479160 0.000000
0.763483 2.605620 0.000000
0.762429 2.735050 0.000000
0.757746 2.866890 0.000000
0.750000 3.000000 0.000000
0.875000 2.000000 0.000000
0.876425 2.112700 0.000000
0.880468 2.227810 0.000000
0.886197 2.346360 0.000000
0.892030 2.468920 0.000000
0.896106 2.595840 0.000000
0.896151 2.727150 0.000000
0.889500 2.862410 0.000000
0.875000 3.000000 0.000000
1.000000 2.000000 0.000000
0.997672 2.105900 0.000000
1.003750 2.216730 0.000000
1.013350 2.332600 0.000000
1.023780 2.453890 0.000000
1.032660 2.581040 0.000000
1.036820 2.714450 0.000000
1.030570 2.854340 0.000000
1.000000 3.000000 0.000000
1.098020 1.995180 0.000000
1.108580 2.094180 0.000000
1.122500 2.200200 0.000000
1.138970 2.312830 0.000000
1.156530 2.432240 0.000000
1.173440 2.558900 0.000000
1.187550 2.693530 0.000000
1.196080 2.837010 0.000000
1.196030 2.990370 0.000000
1.195090 1.980790 0.000000
1.215180 2.074750 0.000000
1.237760 2.176330 0.000000
1.262620 2.285400 0.000000
1.289050 2.402180 0.000000
1.316060 2.527240 0.000000
1.342510 2.661410 0.000000
1.367310 2.805740 0.000000
1.390180 2.961570 0.000000
1.290280 1.956940 0.000000
1.318740 2.046550 0.000000
1.349920 2.143840 0.000000
1.383760 2.248980 0.000000
1.419950 2.362340 0.000000
1.458030 2.484550 0.000000
1.497550 2.616460 0.000000
1.538270 2.759140 0.000000
1.580570 2.913880 0.000000
1.382680 1.923880 0.000000
1.419020 2.009210 0.000000
1.458640 2.102070 0.000000
1.501580 2.202790 0.000000
1.547800 2.311860 0.000000
1.597190 2.429960 0.000000
1.649740 2.557940 0.000000
1.705610 2.696800 0.000000
1.765370 2.847760 0.000000
1.471400 1.881920 0.000000
1.515290 1.962740 0.000000
1.563130 2.050760 0.000000
1.615050 2.146460 0.000000
1.671190 2.250370 0.000000
1.731710 2.363170 0.000000
1.796840 2.485690 0.000000
1.866990 2.618880 0.000000
1.942790 2.763840 0.000000
1.555570 1.831470 0.000000
1.606720 1.907340 0.000000
1.662460 1.990030 0.000000
1.723050 2.080020 0.000000
1.788780 2.177880 0.000000
1.859970 2.284270 0.000000
1.937040 2.399960 0.000000
2.020520 2.525840 0.000000
2.111140 2.662940 0.000000
1.634390 1.773010 0.000000
1.692420 1.843440 0.000000
1.755670 1.920210 0.000000
1.824500 2.003810 0.000000
1.899310 2.094770 0.000000
1.980540 2.193700 0.000000
2.068740 2.301310 0.000000
2.164550 2.418440 0.000000
2.268790 2.546020 0.000000
1.707110 1.707110 0.000000
1.771580 1.771580 0.000000
1.841860 1.841860 0.000000
1.918390 1.918390 0.000000
2.001640 2.001630 0.000000
2.092150 2.092150 0.000000
2.190560 2.190560 0.000000
2.297630 2.297630 0.000000
2.414210 2.414210 0.000000
1.773010 1.634390 0.000000
1.843440 1.692420 0.000000
1.920210 1.755670 0.000000
2.003810 1.824500 0.000000
2.094770 1.899310 0.000000
2.193700 1.980540 0.000000
2.301310 2.068740 0.000000
2.418440 2.164550 0.000000
2.546020 2.268790 0.000000
1.831470 1.555570 0.000000
1.907340 1.606720 0.000000
1.990030 1.662460 0.000000
2.080020 1.723050 0.000000
2.177880 1.788780 0.000000
2.284270 1.859970 0.000000
2.399960 1.937040 0.000000
2.525840 2.020520 0.000000
2.662940 2.111140 0.000000
1.881920 1.471400 0.000000
1.962740 1.515290 0.000000
2.050760 1.563130 0.000000
2.146460 1.615050 0.000000
2.250370 1.671190 0.000000
2.363170 1.731720 0.000000
2.485690 1.796850 0.000000
2.618880 1.866990 0.000000
2.763840 1.942790 0.000000
1.923880 1.382680 0.000000
2.009210 1.419020 0.000000
2.102070 1.458640 0.000000
2.202790 1.501580 0.000000
2.311860 1.547800 0.000000
2.429970 1.597190 0.000000
2.557940 1.649740 0.000000
2.696810 1.705610 0.000000
2.847760 1.765370 0.000000
1.956940 1.290280 0.000000
2.046550 1.318740 0.000000
2.143840 1.349920 0.000000
2.248980 1.383760 0.000000
2.362340 1.419950 0.000000
2.484550 1.458030 0.000000
2.616460 1.497550 0.000000
2.759140 1.538270 0.000000
2.913880 1.580570 0.000000
1.980790 1.195090 0.000000
2.074740 1.215180 0.000000
2.176330 1.237760 0.000000
2.285400 1.262620 0.000000
2.402180 1.289050 0.000000
2.527240 1.316060 0.000000
2.661410 1.342510 0.000000
2.805740 1.367310 0.000000
2.961570 1.390180 0.000000
1.995180 1.098020 0.000000
2.094180 1.108580 0.000000
2.200200 1.122510 0.000000
2.312830 1.138970 0.000000
2.432230 1.156530 0.000000
2.558900 1.173440 0.000000
2.693530 1.187550 0.000000
2.837010 1.196080 0.000000
2.990370 1.196030 0.000000
2.000000 1.000000 0.000000
2.105900 0.997673 0.000000
2.216730 1.003750 0.000000
2.332590 1.013350 0.000000
2.453890 1.023780 0.000000
2.581040 1.032660 0.000000
2.714450 1.036820 0.000000
2.854340 1.030570 0.000000
3.000000 1.000000 0.000000
2.000000 0.875000 0.000000
2.112710 0.876426 0.000000
2.227810 0.880471 0.000000
2.346360 0.886200 0.000000
2.468920 0.892032 0.000000
2.595830 0.896107 0.000000
2.727150 0.896151 0.000000
2.862410 0.889500 0.000000
3.000000 0.875000 0.000000
2.000000 0.750000 0.000000
2.116930 0.752148 0.000000
2.235200 0.755116 0.000000
2.355770 0.758627 0.000000
2.479160 0.761804 0.000000
2.605620 0.763484 0.000000
2.735040 0.762429 0.000000
2.866890 0.757745 0.000000
3.000000 0.750000 0.000000
2.000000 0.625000 0.000000
2.119660 0.626941 0.000000
2.240160 0.629096 0.000000
2.362170 0.631284 0.000000
2.486110 0.633005 0.000000
2.612140 0.633609 0.000000
2.740140 0.632497 0.000000
2.869680 0.629437 0.000000
3.000000 0.625000 0.000000
2.000000 0.500000 0.000000
2.121490 0.501502 0.000000
2.243520 0.503010 0.000000
2.366550 0.504379 0.000000
2.490850 0.505317 0.000000
2.616550 0.505477 0.000000
2.743540 0.504590 0.000000
2.871520 0.502637 0.000000
3.000000 0.500000 0.000000
2.000000 0.375000 0.000000
2.122760 0.376055 0.000000
2.245860 0.377059 0.000000
2.369600 0.377901 0.000000
2.494160 0.378411 0.000000
2.619610 0.378411 0.000000
2.745890 0.377787 0.000000
2.872780 0.376573 0.000000
3.000000 0.375000 0.000000
2.000000 0.250000 0.000000
2.123670 0.250660 0.000000
2.247550 0.251270 0.000000
2.371800 0.251754 0.000000
2.496550 0.252021 0.000000
2.621820 0.251982 0.000000
2.747570 0.251592 0.000000
2.873690 0.250889 0.000000
3.000000 0.250000 0.000000
2.000000 0.125000 0.000000
2.124380 0.125316 0.000000
2.248860 0.125603 0.000000
2.373520 0.125825 0.000000
2.498400 0.125939 0.000000
2.623530 0.125910 0.000000
2.748880 0.125724 0.000000
2.874390 0.125402 0.000000
3.000000 0.125000 0.000000
2.000000 0.000000 0.000000
2.125000 0.000000 0.000000
2.250000 0.000000 0.000000
2.375000 0.000000 0.000000
2.500000 0.000000 0.000000
2.625000 0.000000 0.000000
2.750000 0.000000 0.000000
2.875000 0.000000 0.000000
3.000000 0.000000 0.000000
CELL_DATA 256
SCALARS temperature FLOAT 1
LOOKUP_TABLE default
0.087936
0.199133
0.280459
0.319451
0.309894
0.252913
0.157012
0.036893
0.103355
0.294883
0.442740
0.524284
0.526370
0.447757
0.299864
0.105405
0.102804
0.344344
0.535475
0.647232
0.661524
0.574451
0.397887
0.158569
0.086557
0.340082
0.544246
0.668740
0.693584
0.612603
0.435567
0.188244
0.057477
0.283279
0.467831
0.584735
0.615906
0.554323
0.405746
0.189589
0.020672
0.184015
0.319174
0.407931
0.438228
0.405061
0.310029
0.161423
-0.017173
0.060388
0.124425
0.167173
0.186283
0.182955
0.157640
0.105651
-0.048835
-0.063789
-0.080227
-0.095477
-0.099795
-0.081728
-0.036287
0.025039
-0.066950
-0.161959
-0.254633
-0.330889
-0.368771
-0.345296
-0.247146
-0.087537
-0.059942
-0.212497
-0.365040
-0.493411
-0.566652
-0.553807
-0.435146
-0.216330
-0.020705
-0.206013
-0.392999
-0.552386
-0.649161
-0.650310
-0.536201
-0.312999
0.049397
-0.145146
-0.339242
-0.502089
-0.599293
-0.602229
-0.500368
-0.312561
0.137100
-0.048149
-0.226509
-0.367144
-0.438737
-0.420925
-0.317898
-0.168271
0.220163
0.054175
-0.095832
-0.198952
-0.227090
-0.168271
-0.041316
0.096199
0.274187
0.127105
0.004907
-0.061044
-0.044743
0.059757
0.223037
0.374447
0.280754
0.143555
0.036963
-0.007025
0.036859
0.171493
0.361829
0.530488
0.234256
0.093862
-0.015019
-0.059832
-0.014966
0.122344
0.316028
0.486725
0.144525
-0.010073
-0.136761
-0.202474
-0.179943
-0.063387
0.114965
0.278631
0.034362
-0.138238
-0.289150
-0.384660
-0.394353
-0.306003
-0.142444
0.029102
-0.067187
-0.252013
-0.421851
-0.542293
-0.578937
-0.510793
-0.346694
-0.138149
-0.133404
-0.316183
-0.489749
-0.620036
-0.669809
-0.609953
-0.434817
-0.177174
-0.147477
-0.308777
-0.465838
-0.587515
-0.637330
-0.582778
-0.408842
-0.132528
-0.106571
-0.226029
-0.346674
-0.444213
-0.488026
-0.448984
-0.311450
-0.085768
-0.021511
-0.081295
-0.150291
-0.215094
-0.254759
-0.248175
-0.185845
-0.085732
0.089361
0.100747
0.089847
0.058071
0.015771
-0.023226
-0.049798
-0.070632
0.196679
0.284588
0.330038
0.325978
0.273977
0.182777
0.064170
-0.071126
0.277352
0.432144
0.525141
0.542175
0.479141
0.343117
0.151526
-0.069547
0.316589
0.515366
0.640128
0.671684
0.602919
0.441147
0.208421
-0.060411
0.307415
0.519125
0.655411
0.695094
0.630064
0.467722
0.231305
-0.042726
0.250944
0.442179
0.568457
0.610046
0.559199
0.422150
0.219150
-0.018208
0.155777
0.296362
0.393023
0.430664
0.402789
0.312971
0.174763
0.009734
0.036527
0.104242
0.156484
0.185119
0.185518
0.157427
0.105153
0.036893
