# vtk DataFile Version 2.0
TITLE = "Quad data"
ASCII
DATASET STRUCTURED_GRID
DIMENSIONS 11 11 1
POINTS 121 FLOAT
0.000000 0.000000 0.000000
0.000000 0.130902 0.000000
0.000000 0.258779 0.000000
0.000000 0.380902 0.000000
0.000000 0.495106 0.000000
0.000000 0.600000 0.000000
0.000000 0.695106 0.000000
0.000000 0.780902 0.000000
0.000000 0.858779 0.000000
0.000000 0.930902 0.000000
0.000000 1.000000 0.000000
0.100000 0.000000 0.000000
0.109549 0.118164 0.000000
0.118164 0.234549 0.000000
0.125000 0.347553 0.000000
0.129389 0.455902 0.000000
0.130902 0.558779 0.000000
0.129389 0.655902 0.000000
0.125000 0.747553 0.000000
0.118164 0.834549 0.000000
0.109549 0.918164 0.000000
0.100000 1.000000 0.000000
0.200000 0.000000 0.000000
0.218164 0.090451 0.000000
0.234549 0.181836 0.000000
0.247553 0.275000 0.000000
0.255902 0.370611 0.000000
0.258779 0.469098 0.000000
0.255902 0.570611 0.000000
0.247553 0.675000 0.000000
0.234549 0.781836 0.000000
0.218164 0.890451 0.000000
0.200000 1.000000 0.000000
0.300000 0.000000 0.000000
0.325000 0.070611 0.000000
0.347553 0.144098 0.000000
0.365451 0.223058 0.000000
0.376942 0.309549 0.000000
0.380902 0.404894 0.000000
0.376942 0.509549 0.000000
0.365451 0.623058 0.000000
0.347553 0.744098 0.000000
0.325000 0.870611 0.000000
0.300000 1.000000 0.000000
0.400000 0.000000 0.000000
0.429389 0.075000 0.000000
0.455902 0.152447 0.000000
0.476942 0.234549 0.000000
0.490451 0.323058 0.000000
0.495106 0.419098 0.000000
0.490451 0.523058 0.000000
0.476942 0.634549 0.000000
0.455902 0.752447 0.000000
0.429389 0.875000 0.000000
0.400000 1.000000 0.000000
0.500000 0.000000 0.000000
0.530902 0.100000 0.000000
0.558779 0.200000 0.000000
0.580902 0.300000 0.000000
0.595106 0.400000 0.000000
0.600000 0.500000 0.000000
0.595106 0.600000 0.000000
0.580902 0.700000 0.000000
0.558779 0.800000 0.000000
0.530902 0.900000 0.000000
0.500000 1.000000 0.000000
0.600000 0.000000 0.000000
0.629389 0.125000 0.000000
0.655902 0.247553 0.000000
0.676942 0.365451 0.000000
0.690451 0.476942 0.000000
0.695106 0.580902 0.000000
0.690451 0.676942 0.000000
0.676942 0.765451 0.000000
0.655902 0.847553 0.000000
0.629389 0.925000 0.000000
0.600000 1.000000 0.000000
0.700000 0.000000 0.000000
0.725000 0.129389 0.000000
0.747553 0.255902 0.000000
0.765451 0.376942 0.000000
0.776942 0.490451 0.000000
0.780902 0.595106 0.000000
0.776942 0.690451 0.000000
0.765451 0.776942 0.000000
0.747553 0.855902 0.000000
0.725000 0.929389 0.000000
0.700000 1.000000 0.000000
0.800000 0.000000 0.000000
0.818164 0.109549 0.000000
0.834549 0.218164 0.000000
0.847553 0.325000 0.000000
0.855902 0.429389 0.000000
0.858779 0.530902 0.000000
0.855902 0.629389 0.000000
0.847553 0.725000 0.000000
0.834549 0.818164 0.000000
0.818164 0.909549 0.000000
0.800000 1.000000 0.000000
0.900000 0.000000 0.000000
0.909549 0.081836 0.000000
0.918164 0.165451 0.000000
0.925000 0.252447 0.000000
0.929389 0.344098 0.000000
0.930902 0.441221 0.000000
0.929389 0.544098 0.000000
0.925000 0.652447 0.000000
0.918164 0.765451 0.000000
0.909549 0.881836 0.000000
0.900000 1.000000 0.000000
1.000000 0.000000 0.000000
1.000000 0.069098 0.000000
1.000000 0.141221 0.000000
1.000000 0.219098 0.000000
1.000000 0.304894 0.000000
1.000000 0.400000 0.000000
1.000000 0.504894 0.000000
1.000000 0.619098 0.000000
1.000000 0.741221 0.000000
1.000000 0.869098 0.000000
1.000000 1.000000 0.000000
CELL_DATA 100
SCALARS temperature FLOAT 1
LOOKUP_TABLE default
0.030599
0.091538
0.145847
0.182806
0.196137
0.185463
0.155393
0.113212
0.066492
0.021448
0.074962
0.226733
0.370062
0.481546
0.542221
0.541805
0.480570
0.369109
0.226217
0.074840
0.091262
0.279138
0.468272
0.637076
0.759803
0.810181
0.767791
0.626836
0.403775
0.137672
0.103830
0.314978
0.525710
0.718151
0.867923
0.945011
0.919245
0.772069
0.511108
0.177607
0.133822
0.392373
0.621858
0.802801
0.919198
0.956166
0.899617
0.741335
0.488397
0.170217
0.164766
0.464004
0.688664
0.822684
0.868943
0.838383
0.741153
0.584565
0.376607
0.130496
0.163039
0.446100
0.632322
0.716417
0.716849
0.658359
0.559683
0.430593
0.275007
0.095431
0.120771
0.327639
0.460691
0.521618
0.526375
0.492214
0.429558
0.340975
0.224772
0.079721
0.063429
0.173600
0.249984
0.295020
0.314942
0.314650
0.294314
0.249253
0.173174
0.063320
0.017821
0.049395
0.073157
0.090121
0.101466
0.107406
0.106272
0.094511
0.068140
0.025425
